/*--------------------------------*- C++ -*----------------------------------*\
  =========                 |
  \\      /  F ield         | OpenFOAM: The Open Source CFD Toolbox
   \\    /   O peration     | Website:  https://openfoam.org
    \\  /    A nd           | Version:  8
     \\/     M anipulation  |
\*---------------------------------------------------------------------------*/
FoamFile
{
    version     2.0;
    format      ascii;
    class       volScalarField;
    location    "150";
    object      k;
}
// * * * * * * * * * * * * * * * * * * * * * * * * * * * * * * * * * * * * * //

dimensions      [0 2 -2 0 0 0 0];

internalField   nonuniform List<scalar> 
72028
(
0.019677405
0.019687246
0.017012291
0.017007921
0.014895487
0.014890992
0.013239295
0.013235927
0.011912641
0.011910339
0.010834357
0.010833268
0.0099534616
0.0099542576
0.0092401777
0.0092446983
0.0086770536
0.00868857
0.0082431129
0.0082655138
0.0078945545
0.0079278418
0.0075728621
0.0076090283
0.0072497962
0.0072804081
0.0069363121
0.0069627648
0.006646798
0.0066825955
0.0063930177
0.0064650758
0.006198
0.0063872559
0.0061112099
0.0065201567
0.0062507141
0.0070079316
0.006798825
0.0080524852
0.0080724177
0.0098758461
0.010464902
0.012596629
0.019679966
0.019658103
0.019652973
0.019652112
0.019653516
0.019662227
0.019687848
0.017005329
0.016712011
0.016701769
0.016698312
0.016705146
0.016998028
0.017005678
0.014892143
0.014669751
0.014665156
0.014662587
0.014666305
0.014890399
0.014891329
0.013237374
0.013058466
0.013055235
0.013052729
0.013055843
0.013236129
0.013236841
0.011911975
0.011764971
0.011761596
0.011758698
0.011762336
0.011910436
0.011911712
0.010835098
0.010713817
0.010710094
0.010706587
0.010711065
0.010833026
0.010835001
0.0099561821
0.0098595083
0.0098570247
0.0098528456
0.0098575001
0.0099540355
0.0099561244
0.0092458284
0.0091792462
0.0091833234
0.0091790478
0.0091810521
0.0092459535
0.0092454953
0.0086865475
0.0086642389
0.0086881277
0.0086849986
0.0086782334
0.0086955301
0.0086851256
0.0082562147
0.0082913135
0.0083212249
0.0083212097
0.0083347502
0.0082845283
0.0082525641
0.0079091895
0.0079708483
0.008415141
0.0087274494
0.0081107324
0.0079642352
0.0079025154
0.0075855925
0.007921739
0.011154041
0.01329455
0.009027715
0.0076650349
0.0075771547
0.0072575937
0.0088416954
0.019850138
0.025740398
0.01304924
0.0073846488
0.0072494291
0.0069412322
0.011645011
0.032935302
0.041945274
0.021060389
0.0072955126
0.0069313072
0.0066488581
0.016844558
0.047368439
0.058401734
0.031809923
0.0076374185
0.0066381814
0.0064240294
0.024160564
0.060762856
0.073073154
0.043327813
0.0088623077
0.0063789239
0.0063131118
0.032621769
0.072302351
0.084267429
0.054077725
0.011530932
0.0061561209
0.0063950305
0.041157548
0.081117377
0.091723403
0.063445793
0.016097613
0.0060483322
0.0068330588
0.048994223
0.08681838
0.09601528
0.070773867
0.022024998
0.00612345
0.0078641413
0.055721537
0.089904622
0.097833847
0.075708817
0.028422388
0.0065627137
0.0097281723
0.060815964
0.091094749
0.097895413
0.078705815
0.034447959
0.0076386741
0.012506224
0.064880348
0.091391692
0.096957346
0.080840405
0.039775055
0.0096287802
0.019673064
0.019651937
0.019650732
0.019650687
0.019650696
0.019650693
0.019650832
0.019653444
0.019680888
0.017000407
0.01669565
0.016686524
0.016682687
0.016682013
0.016684078
0.016690754
0.016709473
0.017002757
0.014889502
0.014662036
0.014656043
0.014651377
0.014650306
0.01465329
0.014659679
0.014668995
0.014889542
0.013235051
0.013053094
0.01304811
0.013043717
0.013042551
0.013045596
0.013051133
0.013057997
0.013234686
0.011909944
0.011759547
0.011752743
0.011747003
0.011745473
0.011749452
0.011756503
0.011764729
0.011909403
0.010833711
0.010707838
0.010699345
0.010692362
0.010690507
0.010695278
0.010703784
0.010714266
0.010832735
0.0099563908
0.0098546708
0.0098503835
0.0098475179
0.0098468078
0.0098481427
0.0098524484
0.009861893
0.0099539831
0.0092496011
0.0091824771
0.009203782
0.0092416437
0.0092438369
0.0092147533
0.009191707
0.0091860609
0.0092434784
0.0086965154
0.0086921697
0.0087571255
0.0089448446
0.0091140014
0.0088159489
0.0087424611
0.0086781168
0.0086832351
0.0082749122
0.0083370727
0.0099024138
0.027865533
0.038630695
0.0151063
0.0085778193
0.0083183316
0.0082509085
0.0079368981
0.0085293375
0.036337932
0.1325325
0.16537463
0.082060645
0.013124082
0.0080270477
0.0079012141
0.0076186298
0.01224481
0.1012862
0.23754459
0.27139694
0.17814042
0.039431816
0.0079879319
0.0075760423
0.0072924876
0.024708664
0.15699446
0.28210969
0.31050268
0.23057504
0.079186956
0.0089752249
0.0072476144
0.0069898788
0.043468304
0.18636796
0.29279816
0.31626852
0.24961625
0.11292169
0.012331608
0.0069282723
0.0067489105
0.064202288
0.19797853
0.28668613
0.3057518
0.2511436
0.13386493
0.019128688
0.0066359162
0.0066851797
0.081484429
0.19916654
0.27189236
0.28718431
0.24304341
0.14469419
0.028840975
0.0063768872
0.0069657188
0.093417396
0.19416587
0.25342061
0.26564501
0.23009163
0.14865394
0.039647567
0.0061874557
0.0079319472
0.10060087
0.1858442
0.23422118
0.24405917
0.21528618
0.14799646
0.049841976
0.0061332158
0.010006982
0.10416267
0.17608014
0.21585871
0.22386587
0.20035477
0.14451334
0.058557886
0.0063410886
0.013553011
0.10519386
0.16607129
0.19908943
0.20567736
0.18626572
0.13955235
0.065265686
0.0070859817
0.01823422
0.10477662
0.15666777
0.18419622
0.18962806
0.17355354
0.13423197
0.069884755
0.0086868052
0.02333102
0.10417688
0.14837081
0.17130702
0.17578964
0.16247241
0.1294502
0.07349208
0.011306826
0.019679957
0.019651935
0.019650657
0.019650625
0.019650608
0.019650605
0.019650614
0.019650641
0.019650715
0.019654026
0.0196761
0.017005336
0.016695625
0.016683315
0.016677984
0.016675842
0.016675457
0.016676639
0.016680033
0.016688361
0.01671169
0.017008024
0.014892195
0.014662041
0.014652452
0.014644075
0.014639491
0.014638546
0.014641297
0.0146477
0.014657612
0.014668781
0.014893758
0.013237482
0.013053097
0.013044909
0.013035038
0.013028069
0.013026515
0.013030917
0.013039786
0.013049427
0.013057366
0.013238207
0.011912158
0.011759523
0.011748653
0.01173572
0.011726151
0.011723957
0.011730132
0.011742005
0.011754542
0.011764107
0.011912213
0.010835282
0.010707787
0.010694423
0.010679901
0.010669391
0.010667598
0.010674299
0.010686688
0.010701666
0.010713617
0.010834617
0.0099562822
0.0098546953
0.0098480874
0.0098500954
0.0098628864
0.0098682307
0.0098654482
0.0098462671
0.0098516404
0.0098605236
0.0099542746
0.0092458392
0.0091824366
0.009218693
0.0092570866
0.0097656479
0.010177642
0.0094244046
0.0092523579
0.0091968854
0.0091820751
0.0092409345
0.0086865318
0.0086920925
0.0088499388
0.016033931
0.082618411
0.11418164
0.043148991
0.0096566486
0.0087638431
0.0086684291
0.0086760038
0.008256167
0.0083365734
0.015117808
0.18813274
0.45491248
0.52183279
0.33489674
0.064937379
0.0088082593
0.0082986869
0.0082375131
0.0079092298
0.0085329261
0.089941676
0.42106091
0.68559973
0.7460613
0.57444367
0.24797996
0.018419776
0.0079943159
0.0078829071
0.0075858059
0.012284864
0.19507495
0.49880735
0.70232067
0.74635386
0.61819652
0.35486341
0.059732889
0.0078082161
0.0075574786
0.0072579384
0.02486486
0.24812287
0.49721047
0.65746324
0.69269985
0.59157809
0.3819435
0.1119719
0.0082168105
0.0072337061
0.0069416762
0.043744097
0.26555329
0.4681886
0.59216552
0.61845031
0.54190717
0.37583631
0.14652135
0.010074482
0.0069199673
0.0066491821
0.064546918
0.26480879
0.42661905
0.51952993
0.53848132
0.48254616
0.35429448
0.16412848
0.014299302
0.0066296434
0.0064256229
0.081797949
0.2544289
0.38218906
0.45168358
0.46545199
0.42443487
0.32608718
0.17087689
0.02107525
0.0063676682
0.0063169535
0.093678248
0.23939498
0.3404739
0.39332776
0.40359234
0.37282671
0.29669418
0.17072258
0.029537091
0.0061464203
0.006404235
0.10081611
0.22282677
0.3036391
0.34477445
0.35266253
0.32893322
0.26898204
0.16642695
0.038459487
0.0059866844
0.0068529948
0.10433886
0.20651106
0.2720407
0.30480728
0.31104033
0.29224824
0.24412678
0.15993654
0.046764981
0.0059829182
0.0079020473
0.10533336
0.1914028
0.24530774
0.27189459
0.27692296
0.26173888
0.22246815
0.15256402
0.053960484
0.0062530981
0.0097896845
0.10488855
0.17795987
0.22271049
0.24460875
0.24874173
0.23625701
0.20382378
0.14531201
0.059536298
0.0070503632
0.012590289
0.10425383
0.16632757
0.20391291
0.22239286
0.22589394
0.2153337
0.18804378
0.13885842
0.063984864
0.0087384827
0.019658104
0.019650731
0.019650624
0.019650588
0.019650569
0.019650564
0.019650574
0.019650601
0.019650649
0.019650977
0.019669568
0.016712044
0.016686514
0.016677959
0.016674245
0.016672515
0.016672179
0.016673188
0.016675759
0.016681214
0.016692781
0.017001716
0.01466978
0.014656008
0.014644025
0.014635799
0.014631064
0.014630071
0.014632964
0.014639444
0.014649502
0.014659137
0.014891413
0.013058452
0.01304802
0.013034952
0.013021984
0.01301346
0.013011589
0.013016939
0.013028045
0.01304177
0.013049894
0.013237076
0.011764886
0.011752567
0.011735589
0.011717553
0.01170524
0.011702507
0.011710115
0.011726211
0.011744519
0.011755896
0.01191184
0.010713635
0.010699094
0.010679735
0.010661163
0.010653204
0.01065346
0.010652854
0.010670449
0.010689488
0.01070379
0.010835684
0.0098592468
0.0098501164
0.009849887
0.0098656956
0.0098259885
0.0099038105
0.0097990392
0.009874733
0.0098466582
0.0098509302
0.0099593997
0.0091789008
0.0092035259
0.0092574369
0.01267417
0.045949984
0.06472434
0.024411486
0.0096966301
0.0092481836
0.0091810165
0.00925627
0.0086639142
0.0087569883
0.016065598
0.23064782
0.58177961
0.67200822
0.4227454
0.075630238
0.0091144703
0.0086986313
0.0087121941
0.0082912379
0.0099184017
0.18871434
0.72096445
1.1682005
1.2740006
0.97345952
0.44533198
0.040066955
0.0083672476
0.0083061256
0.007971288
0.036668137
0.42190649
0.92412973
1.2098357
1.3468826
1.1454228
0.67880202
0.18055372
0.0092829993
0.007981202
0.0079282256
0.10216368
0.49949944
0.88048242
1.100668
1.2066364
1.0392467
0.69808939
0.2912139
0.017563765
0.0076702943
0.0088746535
0.15797718
0.49771092
0.79728234
1.0224627
1.0780877
0.92317381
0.65481374
0.32915497
0.0368559
0.007362658
0.011735742
0.18718735
0.46852578
0.69492727
0.84162201
0.87404735
0.78031623
0.59061088
0.33243613
0.059605162
0.0072160263
0.017018027
0.19864247
0.42684448
0.59236596
0.68671634
0.70597142
0.64884148
0.51868338
0.31929001
0.08069935
0.0073850062
0.024405974
0.19968103
0.38234208
0.5038594
0.56708931
0.57931532
0.54240867
0.45121194
0.29826846
0.096460099
0.0081331299
0.032908721
0.19455302
0.34057881
0.4318296
0.47655668
0.48491506
0.45941654
0.39304018
0.27461782
0.10643602
0.0097406996
0.041455256
0.18613012
0.30371076
0.37416068
0.40745602
0.41355527
0.39484061
0.34458088
0.2513238
0.11178765
0.012362957
0.049284252
0.17628776
0.27208848
0.3279439
0.35377174
0.35845236
0.34405154
0.30467703
0.22981584
0.11374945
0.016037287
0.055978784
0.16622058
0.24533947
0.29056175
0.31124595
0.31498157
0.30348505
0.27182141
0.2106862
0.11337413
0.0205733
0.061030774
0.15677323
0.2227296
0.2600144
0.27705014
0.28013213
0.27066006
0.2445913
0.19402612
0.11174081
0.025436276
0.065056839
0.14844176
0.20392243
0.23555075
0.25022745
0.25291129
0.24469913
0.22242049
0.17979496
0.11012999
0.030101724
0.019677317
0.019652975
0.019650686
0.019650606
0.019650568
0.019650545
0.019650538
0.01965055
0.019650579
0.019650628
0.019650775
0.019657059
0.017012202
0.016701814
0.016682683
0.016675788
0.016672483
0.016670806
0.016670466
0.016671467
0.01667387
0.016678466
0.016689621
0.016995488
0.014895467
0.014665204
0.014651349
0.014639395
0.014631008
0.014626002
0.014624939
0.014628026
0.014634773
0.01464479
0.014658541
0.014890022
0.013239323
0.013055231
0.013043624
0.013027908
0.013013372
0.013003854
0.013001762
0.013007766
0.013020152
0.013035893
0.013050056
0.013235697
0.011912723
0.011761484
0.011746809
0.011725915
0.011705118
0.011692562
0.011689518
0.011698021
0.011714699
0.011736706
0.011754886
0.011909906
0.010834446
0.010709855
0.010692076
0.010669135
0.010653061
0.010677497
0.010676038
0.010675661
0.010654812
0.010680654
0.010701477
0.010833207
0.0099535247
0.0098567172
0.0098472008
0.0098631707
0.0098258788
0.010754134
0.011500554
0.010077709
0.0097613364
0.0098477639
0.0098504704
0.0099572565
0.0092402266
0.0091830061
0.0092415138
0.0097672777
0.045968655
0.21156922
0.27268435
0.11875121
0.015609078
0.0092172625
0.0091968084
0.0092572461
0.0086771223
0.0086879992
0.0089457608
0.082845464
0.58209433
1.0828211
1.2005077
0.86586168
0.29613119
0.014166192
0.0087549084
0.0087227826
0.0082432688
0.0083213739
0.02805158
0.4559821
1.169029
1.7486193
1.8735283
1.5000351
0.80959418
0.16342426
0.0090571408
0.008334022
0.0078949158
0.0084217642
0.13338422
0.68686473
1.2106643
1.7974679
1.9603551
1.6743119
0.99792919
0.38784745
0.021896159
0.008029411
0.0075734159
0.011203232
0.23854762
0.7032015
1.1012536
1.5341192
1.7624323
1.4964214
0.93572806
0.47021028
0.063172397
0.0078243868
0.007250444
0.020016768
0.28288686
0.65791793
1.0226805
1.3500194
1.4234226
1.2031904
0.83956069
0.47353818
0.10851888
0.0080854522
0.0069369889
0.033198068
0.29334763
0.5923844
0.84167988
1.0170928
1.0558987
0.94266585
0.72429243
0.44885975
0.13948957
0.009468177
0.0066474906
0.04765794
0.28705728
0.51963717
0.68672488
0.78394598
0.80388779
0.7447126
0.61213016
0.41138562
0.15645421
0.012544461
0.006394078
0.061033106
0.27213909
0.4517373
0.56708394
0.62589633
0.63713608
0.60306301
0.5175251
0.37038161
0.16362594
0.017390106
0.0062001106
0.072536915
0.25358053
0.39335229
0.47654664
0.51553118
0.52261256
0.50078854
0.44170107
0.33130485
0.16439559
0.023895546
0.0061157647
0.081300319
0.23432166
0.34478159
0.40744407
0.43538319
0.44030585
0.42498638
0.38160757
0.29642824
0.16109558
0.031356775
0.0062599492
0.086954506
0.21591873
0.30480341
0.35375901
0.37501235
0.37870556
0.36716766
0.33376551
0.26625857
0.1554451
0.038666403
0.0068173741
0.090004229
0.19912156
0.27188373
0.31123303
0.32814806
0.33107765
0.32192337
0.29523654
0.24055413
0.14868319
0.045030366
0.0081071788
0.091166323
0.18420863
0.24459302
0.27703718
0.29101978
0.29345264
0.28586965
0.26385809
0.21870635
0.141722
0.050106408
0.010517851
0.091442324
0.17130482
0.2223731
0.25021398
0.26250305
0.26467959
0.25794412
0.23883866
0.20045097
0.13529663
0.053947028
0.019687267
0.019652115
0.019650695
0.019650602
0.019650562
0.019650538
0.01965053
0.019650544
0.019650574
0.019650622
0.019650771
0.019654759
0.017007977
0.016698394
0.016682028
0.016675403
0.01667214
0.01667047
0.016670125
0.016671127
0.016673519
0.01667798
0.016688407
0.016715
0.014891112
0.014662701
0.014650321
0.014638461
0.014630009
0.014624941
0.014623853
0.014626985
0.014633814
0.014643812
0.014657308
0.014669282
0.013236094
0.01305282
0.013042527
0.013026381
0.013011498
0.013001761
0.012999607
0.013005739
0.013018446
0.013034531
0.013049005
0.013057446
0.011910542
0.011758702
0.011745375
0.011723765
0.011702386
0.011689516
0.011686344
0.011694731
0.011712278
0.011734891
0.011753669
0.011763798
0.010833393
0.010706484
0.010690354
0.010667379
0.010653393
0.010675961
0.010671742
0.010667778
0.010655451
0.010678679
0.010700224
0.010712346
0.009954382
0.0098527012
0.0098466936
0.0098681684
0.0099032525
0.0114974
0.012738265
0.010333726
0.0098340463
0.0098492379
0.0098502351
0.0098568741
0.0092447609
0.0091789306
0.0092438761
0.010175598
0.064630181
0.27247381
0.34221656
0.16124112
0.019890734
0.0092661572
0.0091994934
0.009173436
0.0086887039
0.0086850509
0.0091136048
0.11409025
0.67183097
1.2003037
1.3224659
0.97379209
0.36332379
0.019778731
0.0087350574
0.0086516654
0.0082656859
0.0083214351
0.038622779
0.52222917
1.2749307
1.8741364
1.9898752
1.6243853
0.8973692
0.20698891
0.009617037
0.0082688654
0.0079279499
0.0087264561
0.16533943
0.74719537
1.3487732
1.9629878
2.0170537
1.8669605
1.0766562
0.43815165
0.029376044
0.0079515474
0.0076090709
0.013269496
0.27115133
0.74626438
1.2077627
1.7650881
1.7931211
1.7466534
1.0738445
0.50974233
0.080957005
0.0077453091
0.0072803739
0.025650552
0.31024095
0.69266869
1.0785732
1.4239507
1.4869663
1.2759908
0.88282049
0.50496568
0.13037009
0.0080771672
0.006962719
0.041795034
0.31601303
0.61839437
0.8742081
1.0560609
1.0950884
0.97973545
0.75336248
0.47372357
0.16019532
0.0095108502
0.0066826021
0.058211703
0.30551184
0.53839001
0.70599382
0.80392413
0.82395947
0.76456643
0.63125567
0.43052447
0.17459312
0.012389963
0.0064645263
0.072870625
0.28696452
0.46534635
0.5792887
0.63713506
0.64817419
0.61477184
0.53053286
0.38501817
0.17899987
0.016840463
0.0063856054
0.084067158
0.26544795
0.40348715
0.48487347
0.52260024
0.5294139
0.50841631
0.45098421
0.34260501
0.17719339
0.022602548
0.0065162331
0.091528506
0.24388496
0.35256437
0.41351083
0.44029026
0.44496696
0.430394
0.38855195
0.30530657
0.1716857
0.029079524
0.0069995119
0.095829804
0.22371308
0.31095142
0.35840945
0.37868947
0.38217727
0.37125842
0.33916375
0.27336931
0.16423702
0.03564283
0.0080361013
0.097661605
0.20554364
0.27684345
0.3149417
0.3310621
0.33382476
0.32517197
0.29955989
0.24633497
0.1560323
0.041942677
0.0098472167
0.097737208
0.18951058
0.24867069
0.28009546
0.29343791
0.29573663
0.28855573
0.26741261
0.22345425
0.14785092
0.047278384
0.012552481
0.096811888
0.17568523
0.22582916
0.25287641
0.26466493
0.26673644
0.26031513
0.24188732
0.20441917
0.14028358
0.050946398
0.019653519
0.019650692
0.019650612
0.019650573
0.019650549
0.019650543
0.019650555
0.019650584
0.019650634
0.019650795
0.019658584
0.016705233
0.016684114
0.016676621
0.016673188
0.016671484
0.016671136
0.016672136
0.016674593
0.016679447
0.01669182
0.016997064
0.014666446
0.014653347
0.01464128
0.014632969
0.014628064
0.014627013
0.014630019
0.014636653
0.014646633
0.014660112
0.014890044
0.013055989
0.013045647
0.013030895
0.013016956
0.013007837
0.013005794
0.013011533
0.013023438
0.013038359
0.013051157
0.013235322
0.011762413
0.01174947
0.011730107
0.011710155
0.011698124
0.011694817
0.0117026
0.011719607
0.011740036
0.011756301
0.011909193
0.010711042
0.010695285
0.010674283
0.010652911
0.010675288
0.010668025
0.01065518
0.010662847
0.010684434
0.010703334
0.01083188
0.0098574492
0.0098482234
0.009864962
0.0097989044
0.010076237
0.010332477
0.009876458
0.0098650032
0.0098475449
0.0098514333
0.009954376
0.0091810701
0.0092149731
0.0094234414
0.024349288
0.11848617
0.16097857
0.063148252
0.011475703
0.0092565216
0.0091897986
0.009250665
0.008678374
0.0088160407
0.043018145
0.42229369
0.86526722
0.97320493
0.67129313
0.18668035
0.010628574
0.008737873
0.0087091066
0.0083348273
0.015041486
0.33458136
0.97411433
1.4999927
1.6239855
1.2744382
0.65347305
0.098118503
0.0085718896
0.0083125606
0.0081090628
0.081554449
0.5739345
1.1468711
1.6761023
1.8672623
1.5614316
0.86445979
0.29935242
0.013215314
0.0079996489
0.0090045597
0.17716208
0.61779348
1.0398035
1.4983486
1.7475299
1.4470899
0.83558975
0.39726852
0.038437041
0.0077201009
0.012944945
0.2296142
0.59118404
0.92345618
1.2035813
1.2758943
1.0787982
0.76248217
0.41536208
0.073763752
0.0076648229
0.020829605
0.24875021
0.5415663
0.78035891
0.94272489
0.9797331
0.87476738
0.66996142
0.40229059
0.10437831
0.0081887775
0.03146714
0.25040327
0.48224252
0.64879209
0.7446953
0.76454807
0.70637185
0.57509118
0.37494245
0.12483291
0.0098664768
0.042917488
0.24242403
0.42416594
0.54232733
0.60302612
0.61474669
0.57955441
0.49171481
0.34212079
0.13620567
0.013232617
0.053646558
0.22958196
0.37259303
0.45932886
0.50074714
0.50839038
0.48507161
0.4229862
0.30924332
0.14107266
0.018502801
0.063015305
0.21486987
0.32873257
0.39475611
0.42494526
0.43036918
0.41366689
0.36746884
0.27895603
0.14145701
0.02518283
0.070375941
0.20001358
0.29207685
0.34397351
0.36712853
0.37123546
0.35853661
0.3227046
0.2521837
0.13894338
0.032286829
0.075354326
0.18598403
0.26159245
0.30341425
0.32188682
0.32515102
0.31504932
0.28634903
0.22904715
0.1347752
0.038855603
0.078393006
0.17331906
0.23613131
0.27059615
0.28583556
0.28853658
0.28019045
0.25654256
0.2092145
0.12999335
0.044349817
0.08056201
0.16227536
0.21522383
0.24463958
0.25791076
0.26029681
0.25296431
0.23257928
0.19249957
0.12556462
0.048762952
0.019662228
0.019650834
0.01965064
0.0196506
0.019650578
0.019650573
0.019650585
0.019650613
0.019650664
0.019651296
0.019676763
0.016998106
0.01669083
0.016680079
0.016675807
0.016673943
0.016673588
0.016674652
0.016677458
0.016683922
0.016702132
0.017002245
0.014890525
0.014659775
0.014647776
0.014639537
0.014634897
0.014633928
0.014636745
0.014643106
0.014653245
0.014665385
0.014890251
0.013236266
0.013051221
0.013039887
0.013028198
0.013020349
0.013018621
0.013023567
0.013033717
0.0130457
0.013055406
0.01323588
0.011910484
0.011756564
0.011742136
0.011726445
0.011714994
0.011712537
0.011719788
0.011733999
0.011749694
0.011761957
0.011910804
0.010832919
0.010703861
0.010686885
0.010670766
0.010655184
0.010655792
0.010663073
0.010678084
0.010695652
0.010710884
0.010834475
0.0099538336
0.009852628
0.0098465515
0.009875085
0.0097614891
0.0098346062
0.0098651416
0.0098523474
0.00984863
0.0098583708
0.0099568296
0.009245799
0.0091920462
0.0092526299
0.0096947439
0.015581563
0.019827823
0.011466001
0.0092857357
0.0092149281
0.0091849566
0.0092496965
0.0086955369
0.0087428741
0.0096514836
0.075437099
0.29570414
0.3623952
0.18610815
0.020212453
0.0088088771
0.0086885475
0.0086974417
0.0082846069
0.0085769534
0.06477124
0.44527703
0.80942573
0.89633298
0.65236515
0.23113814
0.013250001
0.0083546203
0.0082786834
0.0079641396
0.013080009
0.24757944
0.67906523
0.99798218
1.0758868
0.86351793
0.470163
0.072729192
0.0081884918
0.0079442956
0.0076642584
0.039102375
0.35444461
0.69829028
0.93579829
1.0735363
0.83503177
0.53814493
0.17112555
0.0094707046
0.0076269362
0.0073820745
0.078490058
0.38152864
0.65485209
0.83954633
0.88258151
0.76215107
0.52862508
0.22640388
0.015005899
0.0073008472
0.0072873892
0.11214403
0.37542854
0.59053818
0.72418936
0.7531893
0.66975042
0.49309388
0.24704905
0.025816188
0.0069956306
0.007613092
0.13312396
0.35391848
0.51856923
0.61201835
0.63111482
0.57493723
0.44579581
0.24939401
0.039836617
0.0067669588
0.0088020087
0.14402211
0.32575348
0.45108913
0.51742415
0.53041406
0.49159244
0.39683494
0.2417938
0.05396052
0.0067157722
0.011407182
0.14807495
0.29640471
0.39292078
0.44161116
0.45088322
0.42288709
0.35176811
0.22915758
0.066186159
0.0070079265
0.015895283
0.14750718
0.26873359
0.34446886
0.38152674
0.38846555
0.36738795
0.31250269
0.21453165
0.075978954
0.0079723702
0.021758028
0.14410074
0.24391346
0.30457327
0.33369215
0.33908941
0.32263829
0.27913939
0.19972362
0.082634207
0.0099734362
0.028115243
0.13920454
0.22228403
0.27172572
0.29516948
0.29949552
0.28629445
0.25109883
0.18576917
0.08649412
0.013206451
0.034133011
0.13393867
0.20366398
0.2445032
0.26379624
0.26735629
0.25649713
0.22750213
0.17323985
0.088441834
0.017431131
0.039469243
0.12920278
0.1879032
0.22233749
0.23877944
0.24183638
0.23254069
0.20796219
0.16235216
0.089913703
0.02201027
0.019687885
0.019653446
0.019650718
0.019650649
0.019650628
0.019650623
0.019650636
0.019650666
0.019650847
0.019656688
0.017005773
0.016709577
0.016688477
0.016681323
0.016678566
0.016678097
0.016679588
0.016684001
0.016692896
0.01699618
0.014891485
0.014669134
0.014657782
0.014649677
0.01464496
0.014644001
0.014646849
0.01465337
0.014660595
0.014891485
0.013237018
0.013058127
0.013049642
0.013042029
0.013036165
0.013034812
0.013038661
0.013045881
0.013051832
0.013237093
0.011911888
0.011764797
0.011754805
0.011744892
0.01173712
0.011735298
0.011740437
0.01174991
0.011758116
0.011910388
0.010835126
0.010714276
0.010702008
0.010689996
0.010681215
0.010679209
0.010684948
0.010695898
0.010706269
0.010831534
0.0099562163
0.0098619337
0.009852095
0.0098472343
0.0098483798
0.0098497118
0.0098482124
0.0098489412
0.009853661
0.0099507915
0.0092456375
0.0091862833
0.0091974261
0.0092487479
0.0092174308
0.0092658099
0.0092565686
0.0092151963
0.0091837704
0.0092411943
0.0086853518
0.0086785174
0.0087643361
0.0091133621
0.014145042
0.019639589
0.01060876
0.0088086657
0.0087004529
0.0086913243
0.008252748
0.0083186239
0.0088081127
0.04007502
0.16332381
0.20596583
0.097285129
0.013218826
0.0083731029
0.0082846014
0.0079025362
0.0080268245
0.018405148
0.18079203
0.38784148
0.43700973
0.29784791
0.072271124
0.0088441706
0.007972417
0.0075769064
0.0079847812
0.05971328
0.29153668
0.47025128
0.50889664
0.39595676
0.17036662
0.014165314
0.0076938197
0.0072489766
0.0089591585
0.11194062
0.32939947
0.47353307
0.50434039
0.41434751
0.22569632
0.030461338
0.0074824661
0.0069307992
0.012281192
0.14644109
0.33258904
0.44879351
0.47324244
0.401508
0.24643703
0.053573166
0.007557546
0.0066376866
0.019014358
0.16401302
0.31936068
0.41128802
0.43014379
0.37434086
0.24889075
0.076302119
0.0083224807
0.0063781231
0.028658667
0.17074217
0.29828007
0.3702757
0.38471176
0.3416541
0.24139102
0.093220529
0.010632308
0.0061544858
0.039419019
0.17057717
0.27459085
0.33119904
0.34235534
0.30887882
0.22884251
0.10402463
0.015363835
0.0060437797
0.049586208
0.16627802
0.25127219
0.29632575
0.30510073
0.27866923
0.21428735
0.1099514
0.022636281
0.0061121185
0.058289022
0.15978936
0.22974861
0.26616061
0.27319785
0.25195609
0.19953272
0.11229165
0.030974694
0.0065369093
0.065006187
0.15242115
0.21060953
0.24046108
0.24619068
0.22886514
0.18561972
0.11221256
0.038913419
0.0075861925
0.069640729
0.14517546
0.19394462
0.2186181
0.22333137
0.20906728
0.17312114
0.11087268
0.04559264
0.0095370097
0.073267344
0.13872811
0.17971045
0.200366
0.20431232
0.19237871
0.16225629
0.10944484
0.050980732
0.019680888
0.019654029
0.01965098
0.019650777
0.019650773
0.019650797
0.019651298
0.01965668
0.019677533
0.017002802
0.016711796
0.016692886
0.016689733
0.016688543
0.016691972
0.016702248
0.016996155
0.017003691
0.014889598
0.014668947
0.014659309
0.014658716
0.014657527
0.01466039
0.014665604
0.01489153
0.01489001
0.013234758
0.013057602
0.013050159
0.013050325
0.01304932
0.013051569
0.01305574
0.013237165
0.013235026
0.011909485
0.011764397
0.011756287
0.011755288
0.01175409
0.011756841
0.011762397
0.011910559
0.011909462
0.010832788
0.010713954
0.010704322
0.010702026
0.010700741
0.010703952
0.010711394
0.010831835
0.010832194
0.0099539913
0.0098609673
0.009851568
0.0098511182
0.0098508594
0.0098520778
0.0098589664
0.0099511739
0.0099520677
0.0092435219
0.0091827111
0.0091816712
0.0091974256
0.0092002385
0.0091903574
0.0091855786
0.0092416453
0.0092387143
0.0086834312
0.0086691097
0.0086991342
0.0087553846
0.0087390961
0.0087382496
0.008689026
0.0086917876
0.0086733661
0.0082511181
0.0082992798
0.0083674856
0.0090557734
0.0096005934
0.0085670091
0.0083546852
0.0082848783
0.0082337436
0.0079013383
0.0079948046
0.0092877293
0.021900719
0.029135602
0.013118483
0.0081845002
0.0079723878
0.0078777207
0.0075760658
0.0078093814
0.017621407
0.063231731
0.080347555
0.037914092
0.0094347226
0.0076929998
0.0075515589
0.0072475517
0.0082214137
0.037040479
0.10862162
0.12964379
0.072815858
0.014857279
0.0074796615
0.0072277191
0.0069281694
0.010086521
0.059876929
0.13952881
0.15951949
0.10335873
0.025497105
0.0075498038
0.0069141432
0.0066357834
0.014326599
0.080926544
0.15644653
0.17400951
0.12390999
0.039379905
0.0083029389
0.0066229377
0.0063767147
0.021112335
0.096616927
0.16358246
0.17850143
0.13540818
0.053449973
0.010586089
0.006364392
0.0061867495
0.029568288
0.10653921
0.16432475
0.17677249
0.14040468
0.065682117
0.015271913
0.0061532352
0.0061312159
0.03847073
0.11184886
0.16100847
0.17133109
0.1409091
0.075519828
0.022500099
0.0060269999
0.006335462
0.046754179
0.11377358
0.15534987
0.16393779
0.13849475
0.082234668
0.030812962
0.0060834764
0.0070714981
0.053926125
0.11337051
0.14858477
0.15577886
0.13440707
0.086150804
0.038748205
0.0064453203
0.0086566318
0.059483662
0.11171633
0.1416234
0.14763458
0.1296902
0.088150943
0.045439034
0.0073427265
0.011254998
0.06392315
0.11008565
0.13519933
0.14009686
0.12531377
0.089662603
0.050840316
0.0090505891
0.019676299
0.019669569
0.01965706
0.01965476
0.019658584
0.019676764
0.017008245
0.017001824
0.016995588
0.016715098
0.016997212
0.017002414
0.014893996
0.014891593
0.01489019
0.014669464
0.014890349
0.014890555
0.013238465
0.013237346
0.013235929
0.013057701
0.013235766
0.01323634
0.011912495
0.0119122
0.011910228
0.011764126
0.01190979
0.01191143
0.010834913
0.010836151
0.01083363
0.01071272
0.010832512
0.010835162
0.0099546276
0.0099600349
0.0099577894
0.0098573361
0.0099549327
0.009957492
0.0092413141
0.0092570241
0.009257812
0.0091739426
0.0092511638
0.0092503999
0.0086763741
0.0087130443
0.0087233403
0.0086520794
0.0087095609
0.0086981361
0.0082378451
0.0083068709
0.0083344446
0.00826908
0.0083128594
0.0082792829
0.0078831974
0.0079818956
0.0080297673
0.0079522526
0.0079994287
0.0079445355
0.0075577924
0.0076710979
0.0078247751
0.007742186
0.0077180728
0.0076267326
0.0072340777
0.0073639063
0.0080873254
0.0080626467
0.0076552402
0.0073002449
0.0069203871
0.0072189594
0.0094749852
0.0094706696
0.0081554021
0.0069948984
0.006630054
0.0073923572
0.012556447
0.012310222
0.0097839129
0.006763073
0.0063681187
0.0081487126
0.017403047
0.016713195
0.01307777
0.0067053092
0.0061470192
0.0097669544
0.023903611
0.022427914
0.018260565
0.0069811421
0.0059877453
0.012399257
0.031352038
0.028863342
0.024872591
0.0079131397
0.0059852362
0.016080891
0.038646895
0.035395415
0.031941633
0.0098658549
0.0062576279
0.020614954
0.044998612
0.041670057
0.038505952
0.01304169
0.0070583473
0.025467525
0.050064652
0.047009721
0.044013933
0.017224642
0.0087496667
0.03011991
0.053894309
0.050692776
0.048452522
0.021784368
0.019676299
0.019676764
0.017632534
0.017623846
0.01966957
0.019658582
0.017621073
0.017611511
0.019687546
0.017638954
0.017634888
0.019657058
0.019654759
0.017609165
0.017939981
0.019677403
0.017634977
0.017638934
0.019654756
0.019657059
0.017939982
0.017609094
0.019658582
0.019669567
0.017611558
0.017621023
0.019676764
0.019676299
0.017623833
0.017632526
0.0086498889
0.021517835
0.010749564
0.02439031
0.02982151
0.04816659
0.032330832
0.05157594
0.012577079
0.013121133
0.0150436
0.053584617
0.050484768
0.056175462
0.06372851
0.010557452
0.015065199