/*--------------------------------*- C++ -*----------------------------------*\
  =========                 |
  \\      /  F ield         | OpenFOAM: The Open Source CFD Toolbox
   \\    /   O peration     | Website:  https://openfoam.org
    \\  /    A nd           | Version:  8
     \\/     M anipulation  |
\*---------------------------------------------------------------------------*/
FoamFile
{
    version     2.0;
    format      ascii;
    class       volScalarField;
    location    "150";
    object      nut;
}
// * * * * * * * * * * * * * * * * * * * * * * * * * * * * * * * * * * * * * //

dimensions      [0 2 -1 0 0 0 0];

internalField   nonuniform List<scalar> 
72028
(
0.0019974603
0.0019974125
0.0019737602
0.0019735962
0.0019523613
0.0019522575
0.0019336947
0.0019336408
0.0019173146
0.0019173065
0.0019031455
0.0019032154
0.0018916025
0.0018918474
0.0018838108
0.0018844776
0.0018814192
0.0018829629
0.0018851016
0.0018881064
0.0018919371
0.0018965181
0.0018959544
0.0019010805
0.0018943322
0.001898908
0.0018896232
0.0018942219
0.0018850686
0.0018930695
0.0018846771
0.0019037345
0.0018965069
0.0019511982
0.0019377046
0.0020603441
0.0020444427
0.0022786336
0.0022736406
0.0026574544
0.0027177828
0.0032594303
0.0034737038
0.0041049086
0.0019973541
0.0019971698
0.0019971269
0.0019971197
0.0019971312
0.0019972052
0.0019974272
0.0019735856
0.0019708223
0.0019707336
0.0019707074
0.0019707665
0.0019734895
0.0019735965
0.001952281
0.0019498907
0.0019498665
0.0019498554
0.0019498753
0.0019522385
0.0019522833
0.0019336619
0.0019315125
0.0019315097
0.0019314977
0.0019315062
0.0019336241
0.0019336689
0.0019173297
0.0019154498
0.0019154641
0.0019154378
0.0019154495
0.0019172894
0.0019173374
0.0019032415
0.0019018087
0.001901903
0.0019018526
0.0019018486
0.0019032138
0.0019032426
0.0018918611
0.0018914054
0.0018918328
0.0018917588
0.001891623
0.0018919304
0.001891844
0.0018843713
0.0018861284
0.0018875907
0.0018875513
0.0018869538
0.0018848489
0.0018842994
0.0018824388
0.0018888283
0.0018928222
0.0018927425
0.0018914549
0.0018841923
0.0018822082
0.0018866079
0.0018995612
0.0019029316
0.0019036408
0.0019078192
0.0018911023
0.0018860596
0.0018937073
0.0019078661
0.0020084935
0.0020788006
0.0019319818
0.0019020312
0.0018927117
0.0018975224
0.001976801
0.0026867041
0.0031349415
0.0022296658
0.001910358
0.0018962527
0.0018952767
0.0022832863
0.0046517448
0.0057565208
0.0032274204
0.0019199407
0.001894005
0.0018904614
0.0030457256
0.007322121
0.0086418259
0.0050977011
0.0019746837
0.0018885914
0.0018854259
0.0043688696
0.0098020928
0.011210447
0.0073454387
0.0021445008
0.0018833934
0.0018935047
0.006073919
0.011896884
0.0135844
0.0094035422
0.0025397684
0.0018815391
0.001930221
0.0078047561
0.013847494
0.015648868
0.011195816
0.0032673816
0.0018850638
0.0020245466
0.0093739055
0.015660119
0.017425852
0.012902823
0.0043483961
0.0019196522
0.0022153726
0.010850715
0.017247469
0.018956027
0.014527939
0.0056260099
0.0020098691
0.0025704621
0.012326822
0.018617485
0.02020172
0.01597599
0.0069968152
0.0022017656
0.0031376137
0.013720089
0.019770381
0.021195971
0.017271522
0.0083884494
0.0025751352
0.0039047841
0.015112625
0.020765894
0.022001392
0.018522292
0.0097727599
0.0031971367
0.001997295
0.0019971184
0.0019971082
0.0019971078
0.001997108
0.0019971079
0.0019971086
0.0019971299
0.0019973607
0.0019735158
0.0019706875
0.0019705944
0.001970559
0.0019705522
0.0019705702
0.0019706312
0.0019707914
0.0019735359
0.0019522309
0.0019498587
0.0019497872
0.0019497416
0.0019497289
0.0019497566
0.0019498174
0.0019498741
0.0019522229
0.0019336232
0.0019315137
0.0019314631
0.001931432
0.0019314187
0.001931439
0.0019314781
0.0019315032
0.001933598
0.0019173127
0.001915468
0.0019154666
0.0019154822
0.0019154775
0.001915466
0.0019154528
0.0019154706
0.0019172624
0.0019032902
0.0019019153
0.0019021944
0.001902465
0.0019025204
0.0019023268
0.0019020312
0.0019019219
0.0019031699
0.0018920928
0.0018918954
0.0018933427
0.0018947174
0.0018950684
0.0018939858
0.0018925672
0.001891767
0.0018917737
0.0018850421
0.0018879466
0.0018934308
0.0019016804
0.0019023655
0.0018956105
0.0018904736
0.0018870692
0.001884225
0.0018839247
0.001894272
0.0019013099
0.0019553986
0.0019852448
0.0019139818
0.0019026969
0.001890689
0.0018821231
0.0018893166
0.0019051779
0.0022225541
0.0054843241
0.0072032259
0.0032027677
0.0019511013
0.0019035413
0.0018859691
0.0018977849
0.0020320977
0.0070019894
0.018713422
0.022138037
0.01296623
0.002953788
0.0019170668
0.0018926252
0.001902496
0.0029023047
0.015357963
0.030390125
0.034012861
0.023947387
0.0076159574
0.0019876839
0.0018961489
0.0019008404
0.0054306532
0.022186718
0.036816786
0.040082771
0.030836437
0.012906977
0.0023050915
0.0018937584
0.0019000459
0.0084074981
0.026712295
0.039850222
0.042689893
0.0345834
0.017403664
0.0031743136
0.0018881689
0.0019097775
0.011429313
0.029435932
0.041040074
0.043510386
0.036428727
0.02091317
0.004776771
0.0018832821
0.0019637401
0.01420936
0.03106142
0.041317369
0.043473931
0.037261352
0.0234085
0.0067960076
0.0018814739
0.0021140332
0.016670636
0.032032613
0.041128996
0.043020287
0.037547395
0.025140335
0.0087233336
0.0018948853
0.0024408784
0.018664321
0.03259563
0.04069663
0.042365202
0.037518734
0.026355357
0.010474394
0.0019441054
0.0030092573
0.020195836
0.032890965
0.040150475
0.041639826
0.037306627
0.027235909
0.012172178
0.0020697136
0.0038591509
0.021381583
0.033026146
0.03958279
0.040923877
0.037015179
0.027881515
0.013823063
0.0023368473
0.0049277254
0.022384826
0.033117465
0.039055636
0.040260718
0.036736194
0.028417185
0.01533903
0.0028247671
0.0061394611
0.023425412
0.033275264
0.038631068
0.039708561
0.036544538
0.028995723
0.016805896
0.0035380015
0.001997354
0.0019971183
0.0019971076
0.0019971075
0.0019971075
0.0019971074
0.0019971075
0.0019971076
0.0019971077
0.0019971346
0.0019973846
0.0019735881
0.0019706872
0.0019705643
0.0019705159
0.0019704983
0.0019704952
0.0019705042
0.0019705322
0.0019706068
0.0019708156
0.0019736576
0.0019522892
0.0019498588
0.0019497499
0.0019496725
0.0019496363
0.0019496287
0.0019496482
0.0019497016
0.0019497935
0.0019498767
0.0019523143
0.001933677
0.0019315131
0.0019314338
0.0019313766
0.0019313527
0.0019313473
0.0019313569
0.0019313977
0.0019314591
0.0019314967
0.0019336695
0.0019173542
0.0019154648
0.001915464
0.0019155529
0.0019156699
0.0019157046
0.0019156129
0.0019154951
0.0019154464
0.0019154458
0.0019173086
0.0019032693
0.001901909
0.0019023569
0.0019032253
0.0019039688
0.0019042745
0.001903757
0.001902729
0.0019020969
0.0019018462
0.0019031598
0.0018918828
0.0018918972
0.0018942169
0.0018987678
0.001903572
0.0019052359
0.0019033427
0.0018959965
0.0018929213
0.0018915387
0.0018916234
0.0018843848
0.0018879427
0.0018971298
0.0019035821
0.0020191554
0.0020976731
0.0019392805
0.0019038939
0.0018917385
0.0018864336
0.001883772
0.0018824506
0.0018942668
0.0019188852
0.0032584679
0.012273012
0.015779508
0.0074992543
0.00208541
0.0019062371
0.0018892248
0.0018811109
0.0018866175
0.0019050683
0.003202955
0.0233567
0.04756129
0.053370647
0.036948667
0.01034079
0.0020045323
0.0019006734
0.0018841645
0.0018937308
0.0020329661
0.013458103
0.046777847
0.07135142
0.076717008
0.061283557
0.029812453
0.0039507784
0.0019120362
0.0018901374
0.0018975732
0.002910325
0.025309601
0.057647437
0.077589609
0.08171329
0.069578591
0.042671333
0.010120292
0.0019432311
0.0018935691
0.0018953496
0.0054556987
0.032659319
0.060586061
0.077136883
0.080623998
0.070521106
0.048011244
0.016611412
0.0021336238
0.0018917679
0.0018905596
0.0084392391
0.036352547
0.060414167
0.074370502
0.077268857
0.068824437
0.049665625
0.021526271
0.0026668415
0.0018868812
0.001885499
0.011470538
0.038037927
0.058867337
0.070636092
0.073040297
0.06599511
0.049647635
0.024792642
0.0037697758
0.0018819331
0.0018939519
0.014248698
0.038699749
0.056799485
0.066813833
0.068837112
0.062886772
0.048847245
0.02690592
0.0053886075
0.0018789454
0.0019313007
0.016705759
0.038808968
0.054652317
0.063301609
0.06503759
0.059920752
0.04772731
0.02832643
0.0071714995
0.0018827753
0.0020272178
0.018693229
0.038629389
0.052625626
0.060211297
0.061728129
0.057250798
0.046526363
0.029287542
0.0088169951
0.0019012342
0.0022209482
0.020219568
0.038307847
0.050797582
0.057539452
0.058884226
0.054910325
0.045363728
0.029919631
0.010348434
0.0019649938
0.0025807067
0.021399018
0.037942668
0.049195645
0.055241634
0.056444873
0.052885515
0.044309327
0.030336465
0.011881812
0.0021106597
0.0031530741
0.022401422
0.037614484
0.047801922
0.053260588
0.054346443
0.051133306
0.043386116
0.03067713
0.01336047
0.0024170681
0.0039241158
0.023437443
0.037387598
0.046664716
0.05165854
0.052654199
0.049709551
0.042639837
0.031073428
0.014832996
0.0029749544
0.00199717
0.0019971082
0.0019971075
0.0019971072
0.0019971069
0.0019971068
0.001997107
0.0019971073
0.0019971076
0.00199711
0.0019972661
0.001970825
0.001970594
0.0019705142
0.0019704821
0.0019704682
0.0019704654
0.0019704735
0.0019704946
0.001970541
0.0019706549
0.00197353
0.0019498941
0.0019497849
0.0019496687
0.0019496045
0.0019495775
0.0019495723
0.0019495867
0.0019496298
0.0019497151
0.0019498197
0.0019522618
0.0019315133
0.0019314557
0.0019313689
0.0019313355
0.0019313574
0.0019313652
0.0019313407
0.0019313414
0.0019314038
0.0019314658
0.0019336574
0.0019154446
0.0019154504
0.0019155397
0.0019158168
0.0019162172
0.0019163197
0.0019159983
0.0019156582
0.0019154672
0.001915411
0.0019173633
0.0019017933
0.0019021688
0.0019032067
0.0019048959
0.001907384
0.0019083231
0.0019055835
0.0019041452
0.001902549
0.0019018663
0.0019034046
0.0018913801
0.0018933132
0.001898738
0.0019055015
0.0019023523
0.0019198751
0.0018929359
0.0019064918
0.0018952455
0.0018919468
0.001892399
0.0018860918
0.0018933972
0.0019036663
0.0025747281
0.0079178884
0.010328767
0.0046664152
0.0020044438
0.0019030822
0.0018883048
0.0018858717
0.0018887957
0.0019011622
0.0032642089
0.026920025
0.056088315
0.063129796
0.043350645
0.011362997
0.0019836978
0.0018950994
0.0018859789
0.001899551
0.0022256407
0.023410472
0.070008501
0.1047172
0.11242201
0.090117202
0.046665851
0.007305598
0.0019090829
0.0018935104
0.0019079048
0.0070516487
0.046855001
0.091757172
0.1131577
0.12296013
0.10925411
0.070764646
0.023231719
0.0021918275
0.0019036974
0.0019784098
0.015456293
0.057714276
0.093692388
0.11111359
0.11902571
0.10633911
0.077237686
0.035886636
0.0039835238
0.0019108263
0.0022908246
0.022299591
0.060639446
0.090585963
0.10996076
0.1143911
0.10183414
0.07692971
0.042094193
0.0075329563
0.0019150319
0.0030664651
0.026806154
0.060455638
0.085487886
0.10047706
0.10367085
0.094392141
0.074241919
0.044519153
0.010880199
0.0019554401
0.0044066502
0.029514197
0.0588987
0.079788391
0.09156801
0.093974441
0.086886691
0.070548345
0.045165168
0.013968896
0.0020797841
0.0061212969
0.031129604
0.056822659
0.074468943
0.084081052
0.086004066
0.080303982
0.06674593
0.044951231
0.016633562
0.0023576103
0.0078515648
0.032088901
0.054669068
0.06984215
0.077964366
0.079574756
0.074789822
0.063242829
0.044322444
0.018876686
0.002862949
0.0094181749
0.032638681
0.052637213
0.065913119
0.072966354
0.07435987
0.070216128
0.060157571
0.043524911
0.020649917
0.0035842219
0.010894302
0.032922613
0.050804968
0.062595255
0.068837228
0.070068864
0.066406008
0.057493229
0.042689074
0.022003995
0.004471848
0.012367829
0.0330492
0.049199991
0.059780053
0.065377948
0.066483244
0.063197721
0.055207744
0.041896663
0.023026739
0.0054987612
0.013756722
0.033134374
0.047803764
0.057382455
0.062464919
0.063470396
0.060484135
0.053242561
0.041195384
0.023883063
0.0066097238
0.015145225
0.033286636
0.046664568
0.055471526
0.060186932
0.06112391
0.058345623
0.05165592
0.040636589
0.024790596
0.0077682643
0.0019974561
0.001997127
0.0019971078
0.0019971073
0.0019971069
0.0019971063
0.001997106
0.0019971064
0.001997107
0.0019971075
0.0019971083
0.0019971623
0.0019737571
0.0019707369
0.0019705589
0.0019704945
0.0019704659
0.0019704517
0.0019704486
0.0019704572
0.0019704775
0.0019705167
0.0019706192
0.0019734594
0.0019523637
0.001949871
0.0019497397
0.0019496285
0.0019495729
0.0019495532
0.0019495496
0.0019495593
0.0019495943
0.0019496719
0.0019498036
0.0019522289
0.0019337016
0.0019315109
0.0019314243
0.001931338
0.0019313491
0.0019314269
0.0019314475
0.0019313891
0.0019313285
0.0019313685
0.0019314626
0.0019336251
0.0019173272
0.0019154556
0.0019154638
0.0019156456
0.0019162042
0.0019170471
0.0019171926
0.001916741
0.0019158402
0.0019155158
0.0019154302
0.0019173313
0.0019031593
0.00190188
0.0019024342
0.001903941
0.0019073662
0.0019164414
0.0019168429
0.0019145547
0.0019044676
0.0019030645
0.0019020286
0.0019034056
0.0018916131
0.001891799
0.001894678
0.0019036409
0.0019023383
0.0021003597
0.0022370866
0.0019732311
0.0018832665
0.001897997
0.0018927569
0.0018925614
0.0018838187
0.0018875516
0.0019016658
0.0020194584
0.0079205849
0.02532785
0.030723848
0.016196817
0.003122536
0.0018947407
0.0018920734
0.0018865607
0.0018814285
0.0018928024
0.0019555394
0.012295926
0.056108454
0.093807647
0.1022825
0.077846437
0.032773283
0.0028972499
0.0019060751
0.0018880659
0.0018851221
0.0019029487
0.0055150685
0.047645086
0.104761
0.14468628
0.15297891
0.12813647
0.077234085
0.021282977
0.0020611465
0.0018980042
0.0018919866
0.0020100616
0.01880058
0.071444581
0.11319915
0.15244952
0.16328991
0.14466015
0.097782213
0.043699773
0.004632432
0.0019124824
0.0018960343
0.0026968824
0.030489894
0.077650102
0.11112703
0.1403127
0.15479862
0.13821019
0.098469119
0.054772037
0.011085649
0.0019428193
0.0018944305
0.0046842536
0.036894893
0.07716508
0.10995195
0.13440742
0.13988698
0.12383198
0.094456005
0.058077536
0.016889392
0.0020883125
0.0018897324
0.0073649139
0.03990703
0.074382731
0.10046599
0.11703753
0.12062831
0.11019994
0.088586551
0.058217226
0.021117657
0.0025112584
0.0018851916
0.0098401399
0.041081114
0.07064018
0.091557416
0.10355094
0.10602041
0.098755624
0.082282308
0.056971966
0.024154756
0.0033392853
0.0018849162
0.011929946
0.041345609
0.066813326
0.084071301
0.093460969
0.095338801
0.089767959
0.07653396
0.055167564
0.026265571
0.0044665809
0.0018970685
0.013878253
0.041147052
0.063297961
0.07795522
0.085749444
0.087289046
0.082705526
0.071602624
0.053242636
0.027694396
0.0058079203
0.0019390175
0.015685175
0.040707015
0.06020527
0.072957582
0.079680081
0.081002709
0.077062091
0.067449736
0.051395591
0.028643547
0.0072840811
0.0020471249
0.017266208
0.040155184
0.057531609
0.068828722
0.07476886
0.075937639
0.07245714
0.063958155
0.049704686
0.02927897
0.0087885762
0.0022791028
0.018630598
0.039583011
0.055232483
0.065369684
0.070707494
0.071759359
0.068629789
0.061001068
0.048202499
0.029711776
0.010246886
0.0027276402
0.019777985
0.03905222
0.053250456
0.062456868
0.067325587
0.068287609
0.065428837
0.058486643
0.046881785
0.030038401
0.011605893
0.0034879589
0.020770674
0.038624673
0.051647552
0.060178963
0.064735487
0.065640248
0.062956768
0.056489553
0.045797136
0.030362939
0.012844535
0.0019974127
0.0019971198
0.0019971079
0.0019971073
0.0019971067
0.001997106
0.0019971058
0.0019971062
0.0019971069
0.0019971074
0.0019971083
0.0019971401
0.0019735988
0.0019707133
0.0019705534
0.0019704914
0.0019704626
0.0019704489
0.0019704455
0.001970454
0.0019704747
0.0019705117
0.0019706062
0.0019708469
0.0019522654
0.0019498652
0.0019497303
0.0019496214
0.0019495669
0.0019495497
0.0019495462
0.0019495544
0.0019495882
0.0019496622
0.0019497875
0.0019498763
0.0019336541
0.0019315073
0.0019314168
0.0019313343
0.0019313559
0.0019314469
0.0019314696
0.0019314009
0.0019313307
0.0019313602
0.0019314497
0.0019314794
0.0019173253
0.0019154401
0.0019154675
0.0019156832
0.0019163053
0.0019171912
0.0019173377
0.0019168073
0.001915921
0.0019155306
0.0019154292
0.0019153862
0.0019032275
0.0019018429
0.0019025016
0.0019042459
0.0019083146
0.0019168277
0.0019166334
0.0019138683
0.0019053824
0.0019032009
0.0019020864
0.0019016715
0.0018918587
0.0018917409
0.0018950486
0.0019052288
0.0019197579
0.0022365111
0.002461169
0.0020176932
0.0018995003
0.0018987991
0.0018930217
0.0018910716
0.00188448
0.0018875315
0.0019023565
0.0020972557
0.010316905
0.030704934
0.036381216
0.020469078
0.0038866725
0.0019052035
0.0018926364
0.0018853178
0.0018829712
0.0018927391
0.0019850997
0.01576718
0.063105504
0.1022563
0.11092985
0.085868089
0.038489647
0.003916738
0.001900621
0.0018869827
0.0018881179
0.0019036542
0.0072012554
0.053381361
0.11243864
0.15297224
0.16075494
0.13651511
0.084212974
0.025561356
0.0021717847
0.00189656
0.0018965197
0.0020785248
0.022124868
0.076749812
0.12298512
0.16331987
0.16930876
0.15678798
0.10393839
0.04852545
0.0059321696
0.0019069512
0.0019010722
0.0031296184
0.033966067
0.081640792
0.1189818
0.15479672
0.16050787
0.15351387
0.10900286
0.058795352
0.013305923
0.0019336888
0.0018988885
0.0057395684
0.040029572
0.080562808
0.11434602
0.13986252
0.14495871
0.12909757
0.098263346
0.061432962
0.019483328
0.0021053012
0.0018941971
0.0086172567
0.042635006
0.077214643
0.10362998
0.12060566
0.12424472
0.11362473
0.091584462
0.06107464
0.023688268
0.0025447714
0.0018930575
0.011179151
0.043456638
0.072990864
0.093937172
0.10599989
0.108485
0.10118194
0.084664663
0.059404635
0.026529903
0.003348527
0.001903558
0.013550415
0.043422994
0.068792025
0.085970667
0.095320818
0.09719175
0.091647616
0.078488883
0.05725232
0.028395515
0.0045096837
0.0019506982
0.015614223
0.042972863
0.06499661
0.079544902
0.08727321
0.088799237
0.084259137
0.073258279
0.055049367
0.029606327
0.005874199
0.0020591153
0.017389923
0.042321207
0.061690877
0.074333028
0.080988583
0.082297522
0.078399858
0.068888244
0.0529807
0.030359446
0.0072315029
0.0022761278
0.018920242
0.041599093
0.058850246
0.070044538
0.075924886
0.077081571
0.073638779
0.065230385
0.051112172
0.030841881
0.0085279166
0.002652695
0.020166451
0.040886183
0.056413709
0.06646102
0.071747729
0.072789344
0.069691661
0.062140319
0.049462495
0.031139613
0.009851216
0.003251335
0.021162429
0.040225741
0.05431765
0.063449893
0.068276883
0.069230579
0.066397688
0.059518664
0.048014189
0.031328261
0.011143818
0.004092826
0.021967046
0.039675792
0.05262718
0.061104587
0.065630105
0.066528696
0.063864475
0.057444067
0.046823672
0.031493011
0.012253549
0.0019971314
0.0019971078
0.0019971074
0.0019971069
0.0019971063
0.0019971061
0.0019971065
0.0019971071
0.0019971074
0.0019971084
0.0019971749
0.0019707727
0.0019705729
0.001970503
0.0019704735
0.0019704584
0.0019704546
0.0019704633
0.0019704845
0.0019705245
0.0019706396
0.0019734748
0.0019498872
0.0019497614
0.0019496465
0.0019495867
0.0019495621
0.0019495565
0.0019495691
0.0019496093
0.0019496877
0.0019498121
0.0019522213
0.0019315206
0.0019314436
0.0019313537
0.001931341
0.0019313944
0.0019314052
0.0019313619
0.0019313347
0.0019313826
0.001931456
0.0019336001
0.0019154588
0.0019154669
0.0019156074
0.0019159991
0.001916748
0.0019168141
0.0019163443
0.0019157665
0.0019154946
0.0019154062
0.0019172694
0.0019018465
0.0019023239
0.001903747
0.0019055817
0.0019144748
0.0019139004
0.0019087028
0.0019046036
0.0019028426
0.0019019406
0.0019032596
0.0018916138
0.0018939868
0.0019032349
0.0018928884
0.0019729582
0.0020174095
0.0019153685
0.0019050711
0.0018967881
0.0018923793
0.0018922101
0.0018869464
0.00189562
0.0019390363
0.0046559269
0.016169966
0.020442178
0.010108528
0.0023473702
0.0019015549
0.0018902415
0.00188573
0.0018914544
0.0019139565
0.0074810583
0.043304792
0.07779086
0.085818548
0.063010084
0.022879851
0.0022636209
0.001902803
0.0018862914
0.0019078106
0.0031899872
0.036902557
0.090113659
0.12809018
0.13646142
0.1123604
0.064425277
0.014370584
0.0019590913
0.0018952124
0.0019316437
0.012904627
0.061187935
0.10922957
0.14464156
0.15673527
0.13719277
0.086804367
0.035071053
0.0029720182
0.0019074276
0.0022245985
0.023826072
0.069471056
0.10625632
0.13815556
0.15345572
0.13491398
0.08977089
0.047184277
0.007604465
0.0019212596
0.0032048189
0.030703447
0.070411806
0.10176491
0.12378002
0.12905733
0.1143856
0.087330717
0.051733622
0.012578394
0.0019853047
0.0050510748
0.034455836
0.06872502
0.094328634
0.11015414
0.11359839
0.10369335
0.082827082
0.05279139
0.016697138
0.0022004114
0.007284655
0.036308759
0.065906571
0.086829975
0.098717057
0.10116004
0.0939902
0.077621776
0.052314384
0.019896255
0.0027059399
0.0093404028
0.037151549
0.062808272
0.080253373
0.089734678
0.091628684
0.08601436
0.072670569
0.051148088
0.022362926
0.0035956319
0.011130068
0.037449716
0.059851272
0.074744543
0.082676042
0.084242463
0.079581632
0.068312651
0.049738048
0.024176541
0.0048062756
0.012830822
0.037432894
0.057189334
0.070175357
0.077035492
0.078384944
0.074365323
0.064582781
0.048305526
0.025477179
0.0061946348
0.014455415
0.037230954
0.0548558
0.06636904
0.072432842
0.073625299
0.070074198
0.061417272
0.046950825
0.026384678
0.0076423992
0.01590652
0.036947941
0.052836801
0.063163953
0.068607392
0.069679372
0.066489532
0.058723452
0.045727752
0.027057626
0.0090797081
0.0172063
0.036676177
0.051089368
0.060453032
0.065407995
0.066386367
0.063478424
0.05642286
0.044650604
0.027607458
0.01045314
0.018462016
0.036490499
0.049669294
0.058316393
0.06293692
0.063853802
0.061133787
0.054582776
0.04376986
0.028187499
0.011752323
0.0019972053
0.0019971087
0.0019971075
0.0019971073
0.001997107
0.0019971069
0.0019971071
0.0019971073
0.0019971075
0.0019971121
0.0019973263
0.0019734957
0.0019706367
0.0019705356
0.001970498
0.0019704827
0.0019704796
0.0019704888
0.0019705111
0.0019705664
0.0019707322
0.0019735341
0.0019522509
0.0019498258
0.0019497079
0.0019496371
0.0019496043
0.0019495976
0.0019496171
0.0019496649
0.0019497538
0.0019498584
0.0019522458
0.0019336403
0.0019314869
0.0019314065
0.0019313543
0.0019313457
0.0019313461
0.0019313466
0.0019313738
0.0019314383
0.0019314958
0.0019336426
0.0019172997
0.0019154591
0.0019155064
0.0019156788
0.0019158671
0.0019159451
0.0019157842
0.0019155782
0.0019154648
0.001915451
0.0019173334
0.001903208
0.0019020371
0.0019027456
0.0019041745
0.0019045026
0.0019054161
0.0019046266
0.0019033861
0.0019023171
0.0019019034
0.0019033095
0.00189191
0.0018925807
0.001896021
0.001906529
0.0018832616
0.0018995947
0.0019050833
0.0018998228
0.0018939985
0.0018918497
0.0018920969
0.0018848267
0.0018905011
0.0019039124
0.0020040978
0.0031175144
0.0038756316
0.0023455239
0.001910774
0.0018962485
0.0018876048
0.0018850327
0.0018841817
0.0019027185
0.0020843248
0.0113386
0.032733566
0.03840934
0.022825196
0.0039833932
0.0019107712
0.0018930148
0.00188404
0.0018910935
0.0019504102
0.010320666
0.046644478
0.077199003
0.08411236
0.064329571
0.027306685
0.0028567222
0.001910403
0.0018898138
0.0019019947
0.0029452986
0.029757122
0.070744575
0.097742753
0.10384357
0.086711224
0.051451957
0.011547451
0.0019492684
0.0018987588
0.0019101981
0.0075675451
0.042596889
0.077201147
0.098420689
0.10892756
0.08970027
0.06160314
0.022787945
0.0023216883
0.001903669
0.0019193571
0.012817618
0.047928506
0.076884146
0.094409671
0.098200717
0.087274284
0.063911568
0.030165277
0.0036314829
0.0019023204
0.0019726847
0.017301005
0.049581156
0.074193605
0.08854126
0.091532554
0.082781722
0.06325513
0.034114323
0.0059730566
0.0019010525
0.0021383185
0.020809306
0.04956696
0.070501092
0.082240904
0.084620054
0.077583929
0.061291657
0.036061803
0.008575303
0.0019142995
0.0025245357
0.023311866
0.048772232
0.066700877
0.076496275
0.078449783
0.072638302
0.05887526
0.036962861
0.010814296
0.0019720747
0.003238916
0.025049623
0.047658892
0.063200085
0.07156778
0.073223616
0.068285036
0.05644916
0.03728204
0.012777902
0.0021268919
0.0043069415
0.026269775
0.046464232
0.060116968
0.06741707
0.068857235
0.064559083
0.054201871
0.037273628
0.014688544
0.0024568804
0.0055754146
0.02715519
0.045306976
0.05745456
0.063927265
0.065202423
0.06139687
0.052199329
0.03708973
0.016413615
0.003031597
0.006939197
0.027807973
0.044257168
0.055170861
0.060971727
0.062114911
0.058705771
0.050456658
0.036837344
0.017893271
0.0038377792
0.0083274047
0.028351182
0.043337985
0.053207348
0.058458655
0.059495362
0.056407338
0.048945462
0.036606273
0.019152214
0.0048420016
0.0097093107
0.028936103
0.04259499
0.051621903
0.056462421
0.057422285
0.054568899
0.047714589
0.036466224
0.02036419
0.0059641369
0.0019974278
0.00199713
0.0019971079
0.0019971076
0.0019971075
0.0019971074
0.0019971076
0.0019971077
0.0019971086
0.0019971591
0.0019736033
0.001970799
0.0019706152
0.0019705488
0.0019705238
0.0019705202
0.0019705347
0.0019705725
0.0019706537
0.0019734548
0.0019522954
0.0019498864
0.0019498078
0.0019497295
0.0019496859
0.001949678
0.001949706
0.0019497649
0.0019498336
0.0019522417
0.0019336844
0.0019315167
0.0019314792
0.0019314272
0.0019313928
0.0019313858
0.0019314107
0.0019314553
0.0019314916
0.0019336154
0.0019173541
0.0019154794
0.0019154727
0.0019155033
0.0019155555
0.0019155704
0.001915535
0.0019154872
0.0019154524
0.0019172269
0.0019032541
0.0019019239
0.0019021325
0.0019026012
0.0019031221
0.0019032557
0.0019028993
0.0019023441
0.0019019262
0.0019030622
0.0018918493
0.0018917695
0.0018929705
0.0018953081
0.0018980661
0.0018988437
0.0018968686
0.0018940337
0.0018920249
0.0018916528
0.0018843065
0.0018870895
0.0018917996
0.0019031512
0.0018947455
0.001905101
0.0019015404
0.0018962774
0.001888426
0.0018844647
0.0018822218
0.0018907301
0.0019062946
0.0019834941
0.0028934701
0.0038917009
0.0022600745
0.001910719
0.0018958124
0.0018839522
0.001886065
0.0019035704
0.0020044607
0.0073058606
0.021271373
0.025462681
0.01427886
0.0028509424
0.0019119886
0.0018915147
0.0018926923
0.0019170036
0.0039477043
0.023250749
0.043689327
0.048406323
0.034920542
0.011492595
0.0020973352
0.0019036141
0.0018961927
0.0019868752
0.010114602
0.035907949
0.054759148
0.0586905
0.047035679
0.022703106
0.0032828628
0.001915407
0.0018939122
0.002301407
0.016600874
0.042103053
0.058060045
0.06134256
0.051603071
0.030081555
0.0062790662
0.0019412807
0.0018884865
0.0031630122
0.02150284
0.044523198
0.058194752
0.060995487
0.052677065
0.034037722
0.0096388036
0.0020372935
0.0018832845
0.0047530213
0.024760466
0.045160842
0.056945959
0.059334919
0.052217223
0.035992217
0.01293074
0.0023153109
0.0018813306
0.0067629386
0.026870881
0.044939755
0.055139777
0.057190528
0.051065135
0.036903101
0.015844844
0.0029851105
0.0018845976
0.0086869532
0.028290232
0.044305587
0.053213638
0.054994422
0.049667395
0.037232171
0.018254488
0.0041830043
0.0019182899
0.010433429
0.029249938
0.043503419
0.051365781
0.052931599
0.048245634
0.037231736
0.020106649
0.0057976249
0.0020064002
0.012125226
0.029881186
0.042663848
0.04967448
0.051068007
0.046899962
0.037053982
0.021519965
0.00748707
0.0021943451
0.013773543
0.030297585
0.041868897
0.048172211
0.04942252
0.045684217
0.036807082
0.022624258
0.0091105759
0.0025604047
0.015288572
0.030638508
0.041166078
0.046851615
0.047977737
0.044612908
0.036580635
0.023577925
0.010646491
0.0031726076
0.016757652
0.031034954
0.040606094
0.045766962
0.046789984
0.043736763
0.036444151
0.024547487
0.01212055
0.0019973608
0.0019971347
0.0019971102
0.0019971084
0.0019971084
0.0019971086
0.0019971123
0.0019971591
0.0019973321
0.0019735408
0.0019708232
0.0019706622
0.0019706273
0.0019706159
0.0019706505
0.0019707409
0.0019734579
0.0019735588
0.001952231
0.0019498905
0.0019498338
0.0019498182
0.0019498058
0.001949835
0.0019498767
0.001952248
0.0019522466
0.0019336094
0.0019315186
0.0019314898
0.0019314872
0.0019314788
0.0019314939
0.0019315264
0.001933624
0.0019336185
0.001917276
0.0019154752
0.0019154493
0.0019154699
0.0019154716
0.0019154607
0.0019154954
0.001917245
0.0019172614
0.001903181
0.001901883
0.0019019227
0.0019020869
0.0019021422
0.001902008
0.0019019591
0.0019030947
0.0019031103
0.0018917786
0.0018915896
0.0018920201
0.001892831
0.0018930932
0.0018924541
0.0018919185
0.0018916965
0.001891563
0.0018842317
0.001886511
0.001888387
0.0018921509
0.001892742
0.0018903045
0.0018876793
0.0018845187
0.0018836771
0.0018821473
0.0018893148
0.0018951696
0.0019061509
0.0019014714
0.0019028356
0.0018930713
0.0018840099
0.0018809362
0.0018859959
0.0019007601
0.0019091046
0.0020608898
0.0021687009
0.0019572833
0.0019104193
0.0018915498
0.0018838205
0.0018926418
0.0019121067
0.0021927996
0.0046329975
0.0058921112
0.0029534624
0.0019480684
0.0019036055
0.0018895806
0.0018961524
0.0019434601
0.003994204
0.011092376
0.013229972
0.007524758
0.0023139463
0.0019152473
0.0018928804
0.0018937504
0.0021346697
0.0075589937
0.016901217
0.019394119
0.012457153
0.0036008909
0.001940641
0.0018910153
0.0018881554
0.0026694824
0.010912961
0.021117558
0.023600043
0.016568108
0.0059151606
0.0020353536
0.0018861083
0.0018832616
0.0037753274
0.013995278
0.024144475
0.026446851
0.019773883
0.0085068168
0.0023104554
0.001880957
0.0018814425
0.0053945673
0.016648481
0.026249956
0.02831886
0.022251393
0.010745522
0.0029738633
0.0018790226
0.0018946965
0.0071739119
0.018881849
0.027675702
0.0295362
0.024076889
0.01270572
0.0041628594
0.0018858675
0.001943543
0.0088148138
0.020646737
0.02862237
0.030294754
0.025387606
0.014616058
0.0057714397
0.0019149681
0.0020681313
0.010342499
0.02199494
0.029255882
0.030782633
0.026304724
0.016345884
0.0074585979
0.001997976
0.0023328028
0.011871253
0.023013206
0.029686541
0.031085529
0.026985963
0.017832386
0.0090819924
0.0021755799
0.0028166878
0.013345381
0.023868314
0.030011454
0.031278947
0.027544033
0.019100262
0.010618809
0.0025103158
0.0035247699
0.014814146
0.02477211
0.030335018
0.031447292
0.02813137
0.020315129
0.012093518
0.003066282
0.0019973893
0.0019972661
0.0019971624
0.0019971402
0.0019971749
0.0019973264
0.0019736651
0.0019735366
0.0019734665
0.001970854
0.0019734851
0.001973543
0.0019523229
0.0019522743
0.0019522429
0.0019498917
0.0019522458
0.0019522646
0.0019336811
0.0019336784
0.0019336465
0.0019315037
0.0019336402
0.0019336758
0.0019173244
0.0019173942
0.0019173633
0.0019154205
0.0019173287
0.0019173853
0.0019031791
0.0019034485
0.0019034507
0.0019017138
0.0019033288
0.0019033729
0.0018916514
0.0018924649
0.0018926224
0.0018911265
0.0018922764
0.0018921627
0.0018838073
0.0018859578
0.0018866307
0.0018853803
0.0018857924