/*--------------------------------*- C++ -*----------------------------------*\
  =========                 |
  \\      /  F ield         | OpenFOAM: The Open Source CFD Toolbox
   \\    /   O peration     | Website:  https://openfoam.org
    \\  /    A nd           | Version:  8
     \\/     M anipulation  |
\*---------------------------------------------------------------------------*/
FoamFile
{
    version     2.0;
    format      ascii;
    class       volScalarField;
    location    "150";
    object      omega;
}
// * * * * * * * * * * * * * * * * * * * * * * * * * * * * * * * * * * * * * //

dimensions      [0 0 -1 0 0 0 0];

internalField   nonuniform List<scalar> 
72028
(
9.8512121
9.8563746
8.6192291
8.6177309
7.6294726
7.6275757
6.8466314
6.8450807
6.2131907
6.2120161
5.6928683
5.6920874
5.2619203
5.2616598
4.9050455
4.9057087
4.6119724
4.6143076
4.3727686
4.3776738
4.1727362
4.1802089
3.9942217
4.0024756
3.8270986
3.8339973
3.6707382
3.6757914
3.5260245
3.5300317
3.3921023
3.3959966
3.2681136
3.2735043
3.1538398
3.164596
3.0574171
3.0754973
2.9902814
3.03015
2.9702217
3.0299301
3.0126062
3.0686745
9.853018
9.84298
9.8406228
9.8402275
9.8408735
9.8448704
9.8566037
8.6164642
8.4797151
8.4748994
8.4732579
8.4764717
8.6131843
8.6165935
7.6280733
7.5233712
7.5211075
7.519833
7.5216631
7.6273461
7.6276476
6.845754
6.7607462
6.7590835
6.7578277
6.7594105
6.845244
6.8454537
6.2127941
6.1421453
6.1403375
6.1389091
6.1407705
6.212122
6.2126322
5.6929707
5.6334883
5.6312516
5.6295568
5.6319234
5.6919648
5.6929163
5.262639
5.2127947
5.2103045
5.2082989
5.2111336
5.2613116
5.2626561
4.9065852
4.8667134
4.8651032
4.8629395
4.8655415
4.9054085
4.9065956
4.6145179
4.5870973
4.5900389
4.588579
4.588126
4.6149909
4.6143278
4.3762217
4.3648573
4.372845
4.3712079
4.3687317
4.3807934
4.3755584
4.1765639
4.1778866
4.1897774
4.19831
4.1981412
4.1872263
4.1752346
3.99763
4.0073529
4.1515704
4.2407651
4.0489095
4.0123553
3.995857
3.8293056
3.8723551
4.2672457
4.47152
4.0432415
3.84629
3.827566
3.6717133
3.8233948
4.4980548
4.8537514
4.1313504
3.6945221
3.6700935
3.5264489
3.8555873
4.8324822
5.2095811
4.3305682
3.5613969
3.5245856
3.3926661
3.9777554
5.1074596
5.3791965
4.6076055
3.4894157
3.390269
3.2706679
4.1797295
5.221331
5.3848899
4.8301728
3.5291049
3.2657362
3.158747
4.390651
5.1798698
5.2636396
4.9172026
3.7019655
3.1507437
3.0843836
4.5152991
5.0336882
5.0651583
4.8715696
3.9148524
3.0466909
3.059427
4.5203489
4.8290424
4.8428475
4.7389124
4.0621892
2.9806596
3.1005003
4.4326218
4.6076375
4.618586
4.5569705
4.1065944
2.9663196
3.2027954
4.2931222
4.4010477
4.4068732
4.3644926
4.069992
3.0116886
9.8498541
9.8401466
9.8395931
9.8395722
9.8395763
9.8395753
9.839641
9.8408441
9.8534473
8.6142745
8.4719926
8.4677618
8.4659666
8.4656538
8.4666245
8.4697502
8.47856
8.6153778
7.6269165
7.5195373
7.51674
7.5145222
7.5140217
7.5154458
7.5184879
7.5230471
7.6269682
6.8446897
6.7579608
6.7555578
6.7533919
6.7528344
6.7543403
6.7570698
6.7605358
6.84459
6.2117901
6.1392552
6.1357077
6.1326611
6.1318773
6.1339913
6.1377148
6.1419524
6.211671
5.6920966
5.630029
5.6247381
5.6202671
5.6191287
5.6222085
5.6275545
5.6333892
5.6919433
5.2621048
5.2088878
5.2026415
5.1973546
5.1960171
5.1996919
5.2058644
5.2130589
5.2617199
4.9068406
4.8637376
4.8609021
4.8597249
4.8591276
4.8611006
4.8621187
4.8678982
4.9057189
4.6161692
4.5886597
4.6058381
4.5744354
4.5908702
4.6060777
4.5947735
4.5899229
4.6135319
4.3798441
4.3760075
4.4554208
5.080942
5.3629714
4.7166393
4.3963988
4.3699245
4.3748907
4.1821905
4.1973068
5.1896583
7.082216
7.4701579
6.3287976
4.443136
4.1871507
4.1747378
4.0045444
4.2189954
6.5950285
7.8165057
7.9792448
7.4388249
5.1775259
4.0187133
3.9954891
3.8364545
4.5498512
7.076056
7.6625291
7.7465372
7.4773567
6.1352057
3.8936524
3.8271062
3.6787947
5.170183
6.9768607
7.3474664
7.4085105
7.2178051
6.488386
3.8848111
3.6693075
3.5338727
5.6173355
6.7257434
6.9855168
7.0270992
6.8941086
6.4009871
4.0045227
3.5235912
3.4043098
5.7345602
6.4120231
6.5805826
6.6058969
6.5226675
6.181267
4.2438115
3.389304
3.2949903
5.6037092
6.0615057
6.1616046
6.1748776
6.1280318
5.9129658
4.5450018
3.2653457
3.2496282
5.3900097
5.7015066
5.7552967
5.7608406
5.7380982
5.6154223
4.758459
3.1547754
3.3253991
5.1576311
5.3534501
5.3762429
5.3762442
5.3704874
5.3059857
4.8107977
3.0637517
3.5119152
4.9198352
5.0284792
5.0296967
5.0258524
5.0321444
5.0051925
4.7215068
3.0322827
3.700332
4.6806983
4.7306693
4.716252
4.7100019
4.7243201
4.7236197
4.5560088
3.0752288
3.8001739
4.4471739
4.458892
4.4344365
4.426996
4.4458741
4.4644585
4.372994
3.1958227
9.8530142
9.8401455
9.8395586
9.839543
9.8395344
9.839533
9.8395377
9.8395507
9.8395869
9.8411123
9.8509322
8.6164566
8.4719809
8.4662629
8.4637652
8.462754
8.4625719
8.4631328
8.4647352
8.4686407
8.4795806
8.6175149
7.6280681
7.5195402
7.515042
7.5110433
7.5088318
7.5083767
7.5097119
7.5127904
7.5175203
7.5229276
7.6287706
6.8457565
6.7579649
6.7540027
6.7490917
6.745567
6.7447812
6.7470272
6.7514763
6.7562535
6.7602322
6.8461579
6.2128101
6.139253
6.1335807
6.1265445
6.1211754
6.1199189
6.1234354
6.1300104
6.1367116
6.1417073
6.2129865
5.6929844
5.6300208
5.6216705
5.6114748
5.6037638
5.6019224
5.6069652
5.6165056
5.6262468
5.6332719
5.6929624
5.2626317
5.2088956
5.1990284
5.1876251
5.181252
5.1795322
5.1832222
5.1931885
5.2044638
5.2129643
5.2622921
4.9065559
4.8637265
4.8592843
4.8629825
4.8365013
4.8518725
4.8597429
4.8597024
4.861605
4.8674255
4.9055484
4.6144807
4.5886316
4.6120211
4.9206964
6.7317146
7.2360712
5.7537708
4.6305757
4.597457
4.5883523
4.6121703
4.3761743
4.3759971
4.7199565
8.0547656
9.5647632
9.7775242
9.0638381
6.279731
4.3941718
4.3661824
4.3719713
4.1765333
4.1972791
6.683087
9.0012887
9.6087749
9.7248488
9.3735366
8.3179991
4.6623155
4.1810483
4.1705472
3.9976355
4.2211313
7.7075473
8.6527239
9.0517362
9.1338124
8.8848669
8.3162017
5.9022889
4.0181615
3.9911291
3.8293402
4.557594
7.5973071
8.206681
8.5233317
8.5917329
8.3886673
7.9552927
6.7406613
3.8511056
3.8237809
3.6717574
5.1834172
7.304943
7.7496492
7.9623708
8.0038755
7.873761
7.5673326
6.8066293
3.7776832
3.6674101
3.526484
5.6271918
6.9617039
7.2471266
7.3550208
7.3723868
7.3118472
7.1361804
6.6200482
3.7931439
3.5227837
3.3927066
5.7407315
6.5744329
6.7287417
6.7603303
6.7616432
6.7491916
6.6756514
6.3509033
3.9110753
3.3889585
3.2708285
5.6075421
6.1685478
6.2298164
6.2135507
6.2055242
6.2219964
6.2164446
6.0269712
4.1186772
3.2645533
3.1591253
5.3931885
5.7683224
5.7697955
5.7260758
5.7131576
5.7454783
5.7812824
5.6825167
4.3619721
3.1488411
3.0856166
5.1602913
5.3908291
5.3553869
5.2973615
5.2822351
5.3222821
5.3815414
5.3455384
4.5190396
3.0447517
3.0619703
4.9223457
5.0445267
4.9863711
4.9219143
4.9060783
4.9491601
5.0207974
5.0290638
4.5414357
2.9626273
3.1048064
4.6822275
4.7311527
4.659028
4.5926784
4.5769643
4.6204133
4.6979033
4.736819
4.456153
2.9169072
3.2084397
4.4481744
4.4487365
4.3697449
4.3050551
4.2901411
4.3318374
4.4100492
4.468719
4.3136844
2.9373502
9.8429802
9.839593
9.8395427
9.8395258
9.8395175
9.8395157
9.8395199
9.8395317
9.8395546
9.8397069
9.8482462
8.4797197
8.4677582
8.4637598
8.4620129
8.4611946
8.461036
8.4615131
8.4627276
8.4652967
8.4706771
8.614876
7.5233728
7.5167307
7.5110324
7.5070608
7.5047355
7.5042464
7.5056751
7.508833
7.513663
7.5182014
7.6277746
6.760736
6.7555364
6.7490743
6.7424765
6.7379864
6.7369908
6.7398462
6.7455939
6.7524824
6.756472
6.8456161
6.1421178
6.1356675
6.1265182
6.1162179
6.108514
6.1067614
6.1117564
6.1212442
6.1314122
6.137532
6.2126148
5.633438
5.6246819
5.6114428
5.5967167
5.5852433
5.5826291
5.5903369
5.6037999
5.6185084
5.6280455
5.6927908
5.2127263
5.2025816
5.1875968
5.1774798
5.1651782
5.1585702
5.1766354
5.1795309
5.1954527
5.2067692
5.2628434
4.8666246
4.8608531
4.8629514
4.9225277
5.8033128
6.2664149
5.2313147
4.8375665
4.8595818
4.8620416
4.9082182
4.5870045
4.6061237
4.921743
8.5678903
10.372564
10.644866
9.7517673
6.6558356
4.5946869
4.5900661
4.6194546
4.364841
4.4564253
8.0611079
10.298242
11.155765
11.332306
10.80215
9.5429949
5.4844183
4.3828623
4.386628
4.1780323
5.1999381
9.0045135
10.071471
10.69159
10.953815
10.484025
9.5923891
7.7718623
4.2352783
4.1924741
4.0073727
6.6098436
8.6546947
9.3975876
9.9057917
10.137611
9.7729493
9.0381966
8.1148287
4.4091026
4.0141243
3.8739995
7.0843084
8.207709
8.8013894
9.2984324
9.4245763
9.0654643
8.5118446
7.8194863
4.8926209
3.844666
3.827124
6.9829992
7.7499104
8.1289561
8.3762602
8.430985
8.26675
7.9552212
7.4672607
5.4783152
3.6902314
3.8618964
6.7304039
7.247095
7.4242124
7.4995224
7.5123769
7.467674
7.3521693
7.0693862
5.7770743
3.5508523
3.9870594
6.4145061
6.7286903
6.766034
6.7445554
6.7359062
6.7544431
6.7601417
6.6353792
5.7991246
3.4497346
4.1913582
6.062938
6.2298266
6.1829368
6.1124934
6.0938303
6.1427682
6.2147785
6.1959088
5.6384908
3.4023308
4.4016231
5.7027465
5.7698868
5.6765737
5.5841631
5.5615384
5.6232182
5.727972
5.7742518
5.4134672
3.4492722
4.5238559
5.3546101
5.3555487
5.2391175
5.1392502
5.1157153
5.1810303
5.299355
5.3834816
5.1694907
3.5862773
4.5261607
5.029489
4.9865755
4.8605134
4.7607176
4.7377587
4.8021519
4.9236102
5.0287108
4.9235858
3.7414428
4.4364329
4.7314379
4.6592481
4.5312527
4.4352918
4.4135872
4.4748934
4.5939057
4.7098997
4.6786632
3.8483115
4.2955347
4.4595
4.3699628
4.2463361
4.1575046
4.1376819
4.1939586
4.3058083
4.42446
4.44241
3.8749613
9.8511888
9.8406234
9.8395721
9.8395341
9.8395173
9.8395087
9.8395065
9.8395109
9.8395221
9.8395445
9.839614
9.8424943
8.6191972
8.4749082
8.4659654
8.4627428
8.4611882
8.460398
8.4602391
8.46071
8.4618424
8.4640068
8.4692266
8.6120282
7.6294529
7.5211146
7.5145152
7.5088127
7.5047247
7.5022332
7.5017013
7.5032474
7.5065734
7.5114124
7.5179579
7.6271905
6.8466216
6.759077
6.7533706
6.7455353
6.7379699
6.7327702
6.7316156
6.7349275
6.7415519
6.749563
6.7565669
6.8450175
6.2131924
6.1403065
6.1326189
6.1211297
6.1084921
6.0992569
6.0972058
6.1030787
6.1146536
6.1271779
6.136943
6.2117102
5.6928739
5.6311939
5.6202077
5.6037112
5.5852207
5.5715228
5.5695949
5.5760541
5.5946409
5.612345
5.6263491
5.6914864
5.2619243
5.210235
5.1972952
5.1812138
5.1651585
5.1201393
5.1408623
5.1072116
5.1831945
5.1885035
5.2042978
5.2612594
4.9050508
4.8650357
4.859694
4.8365827
5.8036944
8.3532248
8.875332
7.3317619
4.9988465
4.8646565
4.8607039
4.9069432
4.6119861
4.5900191
4.5745746
6.7376355
10.37445
11.542994
11.737176
11.122689
9.0357501
4.8895307
4.5931604
4.6199566
4.3728037
4.3728839
5.0863521
9.5703909
11.159009
12.085591
12.246972
11.706543
10.482343
7.6786372
4.3942247
4.3909396
4.1728179
4.189804
7.0946866
9.6139513
10.694994
11.790578
12.005366
11.574106
10.205631
8.8752737
4.7267093
4.1984236
3.9943454
4.1541418
7.8238258
9.056028
9.9098629
10.933574
11.385323
10.827143
9.5027565
8.5848601
5.6985746
4.0273364
3.8272421
4.2732032
7.6673717
8.5261095
9.3011583
10.044233
10.175519
9.7163135
8.8883781
8.1535515
6.4252687
3.8717636
3.6708842
4.5075975
7.3507758
7.9640045
8.377759
8.6903134
8.7533243
8.5541413
8.1760992
7.7100847
6.6053524
3.7702919
3.5261619
4.8432178
6.9875728
7.3561134
7.5004834
7.5706311
7.582387
7.540964
7.4393898
7.2208429
6.4771595
3.7566306
3.3922346
5.1159583
6.5820554
6.7611856
6.7452737
6.6968739
6.6828623
6.7180207
6.7620322
6.7137569
6.2296738
3.893382
3.2682587
5.2266603
6.1627872
6.2142963
6.1130819
6.0120644
5.9871494
6.0550796
6.1687833
6.2225478
5.9360598
4.1143034
3.1540533
5.1832586
5.7562968
5.7267676
5.5846708
5.4641408
5.4356929
5.5148565
5.6576585
5.7675811
5.6241493
4.304836
3.0579224
5.0361089
5.3771073
5.2980165
5.1397004
5.0156221
4.98706
5.0673772
5.2184981
5.3568102
5.3091043
4.3996209
2.9912534
4.8309897
5.0304804
4.9225332
4.7611219
4.6409234
4.6137208
4.6907236
4.8398585
4.9904909
5.0041841
4.3945413
2.9722317
4.6094849
4.7169822
4.5932568
4.4356561
4.3225731
4.2973044
4.369169
4.5114249
4.6650602
4.7180275
4.3173246
3.0154745
4.4024727
4.4351139
4.3055884
4.1578314
4.0550101
4.0322759
4.0971627
4.2280147
4.3769325
4.4559792
4.1999984
9.8563844
9.8402283
9.8395762
9.8395326
9.8395153
9.8395064
9.8395041
9.8395088
9.8395201
9.8395423
9.8396122
9.841452
8.6177477
8.4732742
8.4656567
8.4625611
8.4610283
8.46024
8.4600793
8.4605511
8.4616763
8.4637814
8.4686668
8.4811255
7.6276064
7.5198537
7.5140242
7.5083607
7.5042352
7.5017022
7.5011577
7.5027322
7.5061049
7.510948
7.5173875
7.5231861
6.8451195
6.7578413
6.7528288
6.7447574
6.7369757
6.7316172
6.7304227
6.7338372
6.7406614
6.7488866
6.7560678
6.7603341
6.2120614
6.1389033
6.1318581
6.1198869
6.1067444
6.0972095
6.0950891
6.1011509
6.1131323
6.1261832
6.1363105
6.1417369
5.6921164
5.6295315
5.6191037
5.6018916
5.5826187
5.5695988
5.567962
5.5739353
5.5922903
5.6109048
5.6255193
5.6331213
5.2616942
5.2082721
5.1960111
5.1795189
5.1585945
5.140775
5.1756968
5.1215546
5.1771755
5.187088
5.2034454
5.2123221
4.9057356
4.8629284
4.8591712
4.8518635
6.2644934
8.8739424
9.406408
7.8773025
5.1176768
4.8636049
4.8606767
4.8657239
4.6143585
4.588615
4.5910061
7.2359326
10.646155
11.738189
11.921641
11.340559
9.4395202
5.0497969
4.5958966
4.5849202
4.3777382
4.3712955
5.3633397
9.7829872
11.338902
12.251481
12.378314
11.898941
10.65595
8.097728
4.4281723
4.3599283
4.1802624
4.1983892
7.4730131
9.7354685
10.966963
12.019283
11.913463
11.907549
10.3586
9.0293166
4.95199
4.1697697
4.0025154
4.2399724
7.9830065
9.1408273
10.150819
11.402619
11.171546
11.377822
9.8515266
8.6697726
6.0842831
4.005458
3.8340186
4.4690734
7.7502938
8.5978718
9.4325381
10.181074
10.257861
9.8839261
8.9842299
8.2197841
6.6913662
3.8365851
3.6758154
4.8501554
7.4120555
8.0087706
8.4358607
8.7563129
8.8139636
8.6225546
8.2258766
7.7564692
6.7626439
3.7374085
3.5300576
5.2071668
7.0302687
7.3761288
7.5155958
7.5841978
7.5951464
7.5563527
7.4559521
7.2473212
6.5809934
3.7001234
3.3960228
5.3777411
6.6085843
6.7645393
6.7382134
6.6841124
6.6690248
6.707996
6.7593376
6.7249356
6.3038079
3.7342892
3.2734974
5.3840114
6.1771064
6.2078183
6.0955945
5.9880946
5.9619195
6.0339606
6.1560853
6.2235957
5.9849839
3.8477668
3.164579
5.2633072
5.7627128
5.7150163
5.5629489
5.4364485
5.4068087
5.4897293
5.640323
5.7625999
5.6550998
4.0212284
3.075184
5.0649354
5.3778355
5.2837743
5.1168794
4.9876857
4.9580888
5.0416156
5.1994749
5.3484191
5.3251299
4.1795472
3.0294102
4.842776
5.0272152
4.9073791
4.7387432
4.614252
4.5861763
4.6658663
4.8207008
4.9802373
5.0107336
4.2576142
3.0286687
4.6184306
4.7111768
4.5780827
4.4144354
4.2977636
4.2717631
4.3458701
4.4929202
4.6539212
4.7194105
4.2425662
3.066947
4.4071418
4.4280207
4.2911127
4.1384195
4.0326757
4.0093441
4.0760554
4.210832
4.3657227
4.4544352
4.1576852
9.8408742
9.839575
9.8395372
9.8395196
9.8395106
9.8395085
9.8395129
9.8395247
9.8395477
9.8396233
9.8431962
8.476489
8.4666315
8.4631293
8.4615133
8.4607137
8.460553
8.4610231
8.4621788
8.4644709
8.4702551
8.6127598
7.5216894
7.5154568
7.5097098
7.5056775
7.5032562
7.5027387
7.5042318
7.5074801
7.5122968
7.5187309
7.6272319
6.7594358
6.7543505
6.7470267
6.739854
6.7349456
6.7338506
6.7369732
6.7432321
6.7507904
6.75716
6.844912
6.1407812
6.1339979
6.1234398
6.1117748
6.1031099
6.1011742
6.1067313
6.1174505
6.1289844
6.1377584
6.2115389
5.631917
5.6222206
5.6069865
5.5903724
5.5760924
5.5739708
5.5824196
5.59846
5.6149855
5.627586
5.6912258
5.2111321
5.1997319
5.1832604
5.1766942
5.1071721
5.1216559
5.156427
5.178286
5.1916947
5.2058449
5.260714
4.8655703
4.8611921
4.8598582
5.2297403
7.3275464
7.8748248
6.2470276
4.8887489
4.8678697
4.861706
4.9056148
4.5882015
4.6061866
5.7502753
9.7516619
11.122993
11.340263
10.653741
8.1591593
4.6953861
4.592106
4.6170525
4.3687919
4.7152182
9.0666172
10.809841
11.710442
11.900693
11.342414
10.143116
6.8277325
4.3754417
4.3860839
4.1980118
6.3197835
9.3798639
10.499639
11.587972
11.913478
11.381297
9.9587132
8.5355983
4.4465789
4.1939462
4.0477236
7.4356392
8.8928184
9.7858039
10.845373
11.387844
10.726019
9.3080258
8.4195106
5.0545359
4.0182498
4.0392127
7.4784504
8.3960925
9.0744066
9.7235507
9.8862602
9.4312421
8.7309735
8.0288615
5.864322
3.860779
4.1237967
7.2193927
7.8801912
8.2727681
8.558234
8.6245333
8.4360995
8.0886759
7.6203826
6.2512698
3.7214756
4.3196473
6.8964976
7.3170628
7.4719829
7.5437348
7.5578067
7.5153776
7.4088898
7.1671005
6.2741911
3.6462291
4.5948219
6.5252738
6.7533452
6.757689
6.7201013
6.7091076
6.7378797
6.7663542
6.6888286
6.090691
3.6801924
4.8199669
6.1304058
6.2253151
6.1453163
6.0567382
6.034847
6.095271
6.191916
6.2174397
5.8351052
3.849717
4.9112444
5.7401351
5.7481448
5.6252812
5.516227
5.4904572
5.5626316
5.6898888
5.7748266
5.5523028
4.0652646
4.868483
5.3722391
5.3244479
5.1827405
5.0685369
5.0422268
5.1165281
5.2542971
5.3712305
5.2660631
4.2246981
4.7373232
5.0336778
4.9509518
4.8035981
4.6917222
4.6663885
4.7383297
4.8762296
5.0089308
4.9810431
4.279389
4.5560642
4.7256578
4.6219266
4.4761385
4.3700401
4.3463228
4.4139478
4.5467841
4.6855917
4.7086316
4.2427266
4.3636626
4.4470579
4.3331365
4.1950396
4.0979247
4.0764497
4.1378806
4.261038
4.3979937
4.4546209
4.1492182
9.8448706
9.8396412
9.8395505
9.8395315
9.839522
9.83952
9.8395248
9.8395379
9.8395623
9.8398563
9.8515514
8.6131964
8.4697648
8.4647441
8.4627373
8.4618571
8.4616901
8.4621903
8.4635191
8.4665616
8.4750895
8.6151261
7.6273623
7.5185052
7.5128057
7.5088523
7.5065985
7.5061274
7.5074973
7.5105762
7.5154336
7.5212564
7.6272421
6.8452577
6.7570849
6.7514978
6.7456281
6.7415946
6.7406978
6.7432571
6.7484178
6.7543965
6.7592208
6.8450501
6.2121139
6.1377268
6.1300426
6.1213003
6.1147216
6.1131902
6.1174885
6.1255654
6.1341212
6.140568
6.2121714
5.691926
5.6275774
5.61656
5.6038803
5.5947332
5.59237
5.5985111
5.6100466
5.622434
5.6316658
5.6924396
5.2612617
5.2059223
5.1932714
5.1796143
5.1832891
5.1772129
5.1783257
5.1859296
5.1999145
5.2109694
5.2623252
4.9053843
4.8622273
4.8597982
4.8374605
4.9980726
5.1160235
4.8884604
4.8596724
4.8595573
4.8659321
4.9069157
4.6150203
4.5949383
4.6305084
6.653123
9.033667
9.4350802
8.1536276
5.0741798
4.6101162
4.5897937
4.6163786
4.3808554
4.3975127
6.2758782
9.5461896
10.484925
10.656377
10.140984
8.4645261
4.638183
4.373224
4.3806873
4.1872564
4.440979
8.3200062
9.5988311
10.210293
10.360648
9.9585485
9.1379031
6.2982895
4.2008027
4.1839415
4.0122846
5.1671149
8.3209037
9.0450766
9.508146
9.8555063
9.3091332
8.7356736
7.5094774
4.0792318
4.0064403
3.8461183
6.123607
7.96037
8.5173879
8.8925882
8.9875262
8.7328253
8.2711957
7.5054468
4.1321685
3.8378641
3.6941479
6.4819378
7.5720006
7.9594216
8.1791173
8.2286495
8.0905592
7.7953185
7.2417983
4.3221067
3.6798725
3.5603172
6.3973281
7.1402095
7.3554779
7.4417756
7.4582181
7.4105196
7.2733522
6.9157389
4.6455055
3.534953
3.4865852
6.1780604
6.6790767
6.7628665
6.7640437
6.7611921
6.7676753
6.7402664
6.5415338
4.9897394
3.405435
3.5219137
5.9112645
6.2192951
6.2170926
6.1705303
6.1576202
6.1929688
6.2315916
6.1465943
5.179736
3.2949142
3.6906196
5.6150911
5.7836658
5.7299773
5.6592009
5.6416084
5.6907244
5.7655332
5.7555882
5.1726673
3.2449159
3.9024951
5.3065635
5.383574
5.3011157
5.2198721
5.2005645
5.2549632
5.3475666
5.3848766
5.0344915
3.2898291
4.0516566
5.0059221
5.0225544
4.9251672
4.8410878
4.8216365
4.8767684
4.9765253
5.0429577
4.8338909
3.4411702
4.0988774
4.7242712
4.6994335
4.5952901
4.5125267
4.4937333
4.5472298
4.6480741
4.732518
4.6178388
3.5999845
4.0650921
4.4651064
4.4113921
4.3070377
4.2289976
4.2115422
4.2614144
4.3584613
4.4521244
4.415285
3.6904368
9.8566193
9.8408443
9.8395876
9.8395547
9.8395444
9.8395425
9.8395482
9.8395627
9.8396485
9.8423245
8.6166118
8.4785797
8.4686636
8.4653183
8.4640266
8.4638043
8.4644983
8.4665756
8.4707404
8.6123989
7.6276801
7.5230713
7.5175525
7.5136972
7.511446
7.5109843
7.5123374
7.5154546
7.5188956
7.6278896
6.8454903
6.7605561
6.7562944
6.7525349
6.749619
6.7489424
6.7508484
6.7544308
6.7573851
6.8457734
6.2126697
6.1419598
6.1367644
6.1314917
6.1272672
6.1262683
6.129064
6.1341628
6.1385578
6.2122997
5.6929477
5.6333886
5.6263212
5.6186212
5.6124698
5.6110217
5.6150887
5.6224832
5.6291716
5.6916344
5.26269
5.2130737
5.2045686
5.1955851
5.1886389
5.1872157
5.1918265
5.1999819
5.2079976
5.2603688
4.9066528
4.8679638
4.8617339
4.859702
4.8647328
4.8636842
4.8679316
4.8596246
4.8631878
4.903883
4.6144145
4.5900351
4.597577
4.5946
4.8886084
5.0465309
4.6939867
4.6101315
4.5893006
4.6133466
4.3756435
4.3700112
4.3942556
5.4853251
7.6781039
8.0889295
6.8132278
4.6366515
4.379264
4.3798769
4.1752884
4.1871723
4.6622408
7.7757508
8.8772592
9.0279473
8.5293037
6.2884948
4.2168609
4.1880425
3.9958525
4.0187633
5.9036706
8.119001
8.5876296
8.6708521
8.4182215
7.5041108
4.3149273
4.0168066
3.8275146
3.8929048
6.7430561
7.8236481
8.1559198
8.2217043
8.0295126
7.5028142
4.8512528
3.8543968
3.6700285
3.882752
6.810314
7.4700168
7.7119241
7.7586467
7.6220647
7.240115
5.5580721
3.7096009
3.5245267
4.0004782
6.6239875
7.0716281
7.2224268
7.2494207
7.1689156
6.9151271
5.9008314
3.5945414
3.3902193
4.2376056
6.3541707
6.6373319
6.7152194
6.726844
6.6905552
6.5412122
5.8833352
3.5617802
3.2656763
4.5377267
6.029543
6.1976575
6.2239503
6.2252739
6.2189453
6.1463649
5.6985785
3.6729187
3.150608
4.7526281
5.6847305
5.7759183
5.7689331
5.7640567
5.7760508
5.7555026
5.46841
3.9044059
3.0463108
4.8072525
5.3474908
5.3850889
5.3580955
5.3496869
5.3722024
5.3849197
5.218022
4.1370916
2.9789796
4.7196418
5.0308022
5.0302144
4.991697
4.9813461
5.0097202
5.0430435
4.9598341
4.2712359
2.9628881
4.5550838
4.7383332
4.7112728
4.6661807
4.6548959
4.6862508
4.7325898
4.7023937
4.28241
3.0060476
4.3721724
4.4700602
4.4257016
4.3779615
4.3665823
4.3985586
4.4521901
4.4584946
4.2061401
9.8534468
9.8411132
9.8397075
9.8396144
9.8396124
9.8396237
9.8398567
9.8423207
9.8519087
8.6153793
8.479602
8.4706988
8.4692488
8.4686938
8.4702854
8.4751112
8.6123726
8.6157512
7.6269653
7.5229595
7.5182352
7.5179912
7.5174294
7.5187849
7.5212982
7.6278885
7.6271157
6.844587
6.7602777
6.7565252
6.7566198
6.7561289
6.7572408
6.7592861
6.84578
6.8446933
6.2116693
6.141764
6.1376131
6.1370257
6.1363946
6.1378658
6.1406552
6.2123302
6.2117048
5.6919381
5.6333402
5.6281585
5.6264652
5.6256261
5.6277115
5.6317686
5.6916952
5.691837
5.2617106
5.2130586
5.2069045
5.2044361
5.2035788
5.2059798
5.2110946
5.2604495
5.2612932
4.9057247
4.867563
4.8621767
4.8608309
4.8607989
4.8618397
4.8660693
4.9039819
4.9046167
4.613577
4.5884939
4.5901613
4.5932274
4.5959651
4.5922251
4.5899096
4.6134511
4.6111964
4.3749397
4.3662953
4.3829371
4.3941086
4.4268867
4.3769898
4.3732207
4.3799421
4.3707687
4.1747669
4.1811498
4.2355577
4.7271165
4.9448493
4.4417302
4.2013412
4.1880463
4.1690312
3.9954942
4.0182876
4.4117444
5.7004679
6.0731462
5.0385795
4.07733
4.0167136
3.9894538
3.8270892
3.8513751
4.9001864
6.4268522
6.6846962
5.8453051
4.1260008
3.8542221
3.8221367
3.6692792
3.7784556
5.4867721
6.6072419
6.7592881
6.2384146
4.3104671
3.7093327
3.6658251
3.523559
3.7947966
5.7824178
6.4795995
6.5795927
6.2663458
4.6292175
3.5936373
3.5210468
3.3892691
3.913629
5.803348
6.2317234
6.3032704
6.08538
4.9741627
3.5597093
3.3870757
3.2652985
4.1216407
5.642414
5.9375097
5.9849436
5.8315126
5.1694922
3.6686112
3.2628141
3.1546592
4.364327
5.4172657
5.625267
5.6554705
5.5503108
5.166908
3.8985244
3.1473108
3.0633751
4.520588
5.1727161
5.3100389
5.3256582
5.2650142
5.0309098
4.1312004
3.0448196
3.0313313
4.5425807
4.9263242
5.0051222
5.0112985
4.980629
4.8311429
4.2664873
2.9625757
3.0733373
4.4572471
4.6805288
4.7189782
4.7199346
4.7084682
4.6151693
4.2791084
2.925021
3.1931156
4.3150075
4.4439351
4.4568734
4.4549736
4.4545917
4.4135877
4.2039311
2.9516493
9.8510086
9.8482466
9.8424945
9.8414521
9.8431961
9.8515518
8.6175942
8.614902
8.6120478
8.4811449
8.6127897
8.6151728
7.6288588
7.6278182
7.6272224
7.5232198
7.627292
7.6273243
6.8462503
6.8456816
6.8450614
6.7603813
6.8449992
6.8451704
6.2130827
6.2127027
6.2117741
6.1417981
6.2116581
6.2123299
5.6930601
5.6929047
5.6915739
5.6331923
5.6913512
5.6926113
5.2624007
5.2629957
5.2613715
5.2124151
5.2608239
5.2624924
4.9056578
4.9083942
4.9070611
4.8658313
4.9057171
4.9070959
4.6122685
4.6196443
4.6200684
4.5850141
4.6171547
4.6165615
4.3720502
4.3867813
4.3910123
4.3599833
4.3861445
4.380854
4.1706061
4.1926061
4.1984646
4.1697766
4.1939201
4.1840285
3.9911838
4.0142471
4.027363
4.0052443
4.0180454
4.0064316
3.8238414
3.8448043
3.8718198
3.8362674
3.8601923
3.8377985
3.6674754
3.6904246
3.770623
3.7359372
3.7200619
3.6797735
3.5228436
3.551085
3.7574389
3.6974103
3.6427932
3.534816
3.3890112
3.450487
3.8945765
3.7298206
3.6721008
3.4049509
3.2646066
3.4038342
4.1151206
3.840928
3.8376434
3.2934658
3.1489049
3.451983
4.3052511
4.0126253
4.052293
3.2411845
3.0448821
3.5894613
4.399995
4.1706598
4.2139221
3.2815708
2.96295
3.7443819
4.3950625
4.250504
4.2715908
3.4297418
2.9175233
3.8507514
4.3178924
4.2376175
4.237309
3.5889088
2.9382879
3.877007
4.2005103
4.1544739
4.1454744
3.6818626
9.8510087
9.8515518
8.9075098
8.903836
9.8482468
9.8431956
8.9025448
8.8981599
9.856513
8.9101669
8.9089266
9.8424941
9.8414523
8.897053
9.0501225
9.8512128
8.9089658
8.9101611
9.8414513
9.8424946
9.0501199
8.8970372
9.8431957
9.8482463
8.8981703
8.9025336
9.8515517
9.8510086
8.9038336
8.9075085
2.9321071
3.6720279
2.9886763
3.661611
3.8679592
4.141197
3.831595
4.0637008
3.06769
3.075357
3.1190143
4.1960825
4.150786
4.1000195
4.1742172
3.0172119
3.1201185
3.0808226
4.1524399
4.1985135
4.1745703
4.1018537
4.1442766
3.8756446
4.0659677
3.837504
3.6809782
2.938579
3.6684287
2.9976612
9.8519121
8.9055928
9.8566041
8.906989
9.853455
9.8423333
8.904817
8.8970892
8.9069901
9.8423307
9.8534381
8.8970702
8.9047911
9.8519118
8.9056007
2.9203873
2.9789439
3.0048033
3.0631361
3.1886936
4.200304
3.2701499
4.1317481
3.0716413
4.2045643
3.1963794
4.1344902
3.277901
2.9243746
2.9846482
9.8534304
8.9047978
9.856619
9.8423295
8.9069987
8.8970622
8.9048053
9.8423295
9.856619
8.8970484
8.9069922
3.1899662
3.2712172
3.0082402
4.2027759
3.0674577
4.1333924
3.2770899
4.2036932
3.0106894
4.1338478
3.0704579
9.8509324
8.907448
9.8515515
8.9038277
8.9074452
9.8515518
8.9038065
2.9357683
2.9935537
3.6777096
3.6659229
2.9959602
3.6805125
3.6681864
9.8482462
8.9025508
9.8431958
8.8981745
8.9025383
9.8431949
8.8981564
10.956547
10.091688
10.327832
11.58383
11.900678
10.936194
11.402714
10.821385
10.327738
10.084474
11.896791
11.570403
11.401123
10.919429
10.139621
9.4286046
9.6422391
10.840926
11.369047
10.203114
10.534414
9.8978407
9.6420081
9.4220506
11.36783
10.826218
10.535077
10.195389
3.8733665
3.8357858
4.1436092
4.0656148
3.8370231
4.145614
4.0669246
9.8424939
8.9101339
8.8970622
9.8565124
9.8414526
8.908944
9.0501308
9.8511887
8.8970448
8.9101263
9.8414515
9.8565126
9.0501183
8.9089373
11.781015
11.413933
10.965454
11.910569
12.011854
11.199375
11.421381
10.690342
10.921127
10.088842
11.9058
10.964524
11.410435
10.335319
10.842158
9.4310665
10.204378
10.150352
11.385439
9.6501625
10.544078
11.3866
10.408275
10.685464
11.402469
11.171257
10.692917
10.721655
10.917717
10.685151
10.400371
11.170518
11.392588
10.720778
10.686887
9.9028524
10.19645
9.4259118
11.376539
10.145416
10.536923
9.6454793
4.198196
3.0785797
4.1017354
3.0676521
4.1520957
3.1188367
4.1747607
3.0202107
4.1029793
3.0846724
4.1559727
3.0749583
4.1771766
3.1272335
9.8414517
8.9089779
9.0501296
9.8511898
9.8424943
8.9101306
8.8970594
9.8563845
9.050123
8.9089726
9.8424941
9.85119
8.897035
8.9101234
11.38575
9.6498132
10.542428
9.9122523
10.845804
9.4335246
10.206899
11.172333
10.692256
10.723102
10.937734
11.404358
10.411008
10.694458
11.394111
10.722767
10.691255
11.404745
10.950082
10.69449
10.418709
10.147368
10.541983
9.6477568
10.857
9.9144047
10.213831
9.4348707
4.1508103
3.1181633
4.1744829
3.0124452
4.1964946
3.0750178
4.1004196
3.075952
4.1775859
3.1282027
4.2028519
3.0249577
4.1052064
3.0902592
9.843195
8.89819
9.8482463
8.9025492
8.8981677
9.8482464
8.9025249
11.910903
10.940315
11.421688
10.6966
10.968045
10.096587
10.340899
11.596614
11.422263
10.95218
10.969017
10.702363
10.341958
10.102524
11.387565
10.206254
10.545279
9.911135
10.151205
9.4319619
9.6510048
10.857251
10.544485
10.214747
10.152217
9.9163821
9.6511583
9.4374972
4.1416786
4.0641582
3.8687176
3.8322249
4.0696788
3.8834007
3.8435732
9.851552
8.9038341
9.8509322
8.9074487
8.9038233
9.8509324
8.9074375
3.6729475
3.6623277
2.9330541
2.989862
3.67576
2.9449597
3.0062153
9.8423306
8.9070011
8.8970892
9.8534385
8.9048156
9.8566193
8.8972183
8.9069921
9.8534436
8.9051127
4.201628
3.0646739
4.1327449
3.1913815
3.2728836
3.0190642
4.1344751
3.0803603
3.2035885
3.271094
9.8519114
8.9056027
9.8423294
8.9048069
8.8970614
9.8566039
8.9069965
9.853422
8.8971926
8.9050651
9.8566037
8.9069976
8.9056557
2.922091
2.9813595
4.2045426
3.2744059
4.1346774
3.0109984
3.0707726
3.2022051
4.1329388
3.2695464
3.0141001
3.0741599
3.0087889
9.8515515
8.9075186
8.9038377
9.8431956
8.9025599
8.8981679
9.8414519
8.8970632
9.0501275
9.8512118
9.856513
8.910166
8.9089288
9.8424943
9.050134
8.897058
9.8563744
9.8512128
8.9089694
8.9101684
9.8482466
8.8981903
8.9025493
9.8510084
8.9038563
8.907518
3.6820341
2.9971584
3.6693615
4.1461643
3.838678
4.067533
4.1553566
4.1035276
4.1766739
3.0198011
3.0723601
3.0839663
3.1242452
4.1996927
4.1764956
4.1028561
3.0719219
3.0183196
3.1237095
3.0822785
3.8756944
4.0669543
3.8376559
2.9397689
3.6692162
2.9992043
9.5425833
9.8506083
9.5413166
9.8554216
9.5450928
9.8571619
9.5439978
9.8531736
9.5440983
9.8537499
9.5460985
9.5423334
9.8564538
9.5442291
9.8511969
9.5412598
9.851893
9.544667
9.5413873
9.8567032
9.5410162
9.8555048
9.5414913
9.8524718
9.8448709
8.9059594
8.8995308
9.8411136
9.8398568
9.0462626
9.0406226
9.8530186
8.8995341
8.9059489
9.8398569
9.8411123
9.0406091
9.046256
9.5448551
9.8518322
9.543436
9.8522361
9.5425258
9.5412544
9.854339
4.0642275
3.2726435
4.0036671
4.3119015
4.4117304
4.2268091
4.3135958
3.2129921
4.0076674
3.2823949
4.4132944
4.3142785
4.3140358
4.2282781
9.5415242
9.8524959
9.8408454
8.9023654
9.0444001
9.8408424
9.8396428
9.0443791
9.0369433
9.8498538
9.0443748
8.902358
9.8396426
9.8408425
9.036927
9.044391