/*--------------------------------*- C++ -*----------------------------------*\
  =========                 |
  \\      /  F ield         | OpenFOAM: The Open Source CFD Toolbox
   \\    /   O peration     | Website:  https://openfoam.org
    \\  /    A nd           | Version:  8
     \\/     M anipulation  |
\*---------------------------------------------------------------------------*/
FoamFile
{
    version     2.0;
    format      ascii;
    class       volScalarField;
    location    "150";
    object      p;
}
// * * * * * * * * * * * * * * * * * * * * * * * * * * * * * * * * * * * * * //

dimensions      [0 2 -2 0 0 0 0];

internalField   nonuniform List<scalar> 
72028
(
0.28668993
0.28236019
0.28173754
0.28163414
0.27921706
0.2792528
0.27455077
0.2746063
0.26641365
0.26649491
0.25284264
0.2529657
0.23095601
0.2311323
0.19709133
0.19731298
0.1477862
0.14797821
0.08265663
0.082666952
0.009089622
0.0087372013
-0.056192877
-0.056866773
-0.097102388
-0.097736225
-0.11074176
-0.11110349
-0.10497954
-0.10506227
-0.08943534
-0.089390723
-0.071148428
-0.071124143
-0.053879576
-0.053805376
-0.038999637
-0.038883824
-0.026706047
-0.026561046
-0.016572617
-0.016454353
-0.0079036483
-0.0076441873
0.28274064
0.28279837
0.28327541
0.28345371
0.28318445
0.28268556
0.28181462
0.28151054
0.28210433
0.28277034
0.28296277
0.28250022
0.28189931
0.28155333
0.27904144
0.27975797
0.28070572
0.28097861
0.28029988
0.27960742
0.27905456
0.27427888
0.27524601
0.2767022
0.27711366
0.27606107
0.27512415
0.27427072
0.26598098
0.26734732
0.26960929
0.2702437
0.26860157
0.26726212
0.26594524
0.25216635
0.25398265
0.25736779
0.25831866
0.2558419
0.25406296
0.25209127
0.22997572
0.23198333
0.23665979
0.23797279
0.23453604
0.23259174
0.22986141
0.19583707
0.197013
0.20254912
0.20409596
0.20002253
0.19898121
0.19571867
0.1465527
0.14456112
0.14910173
0.15033556
0.1470367
0.14938193
0.14651928
0.082062906
0.073382398
0.073234648
0.073050684
0.073384356
0.082904093
0.082310408
0.0097309991
-0.0074042981
-0.015850434
-0.01872076
-0.011684353
0.0069589663
0.010410791
-0.054608737
-0.075696204
-0.09001825
-0.094646228
-0.083180543
-0.0603486
-0.053603805
-0.095603314
-0.11257303
-0.12471678
-0.12783278
-0.11936154
-0.10143818
-0.094614286
-0.10988346
-0.11895843
-0.12522184
-0.12660552
-0.1224698
-0.11383914
-0.10918207
-0.10467087
-0.10686934
-0.10856693
-0.10843506
-0.10799944
-0.10658951
-0.10434359
-0.089438503
-0.087495109
-0.086283058
-0.085450836
-0.087054251
-0.08991951
-0.089407671
-0.07123025
-0.067333825
-0.06506202
-0.064188692
-0.066220499
-0.070855063
-0.071368978
-0.053939399
-0.049517964
-0.047240145
-0.046574562
-0.048354937
-0.053165434
-0.054142027
-0.039036756
-0.034855199
-0.032923563
-0.032502106
-0.033882709
-0.038165647
-0.03924677
-0.026734312
-0.023083498
-0.021569599
-0.021323737
-0.022323134
-0.025899955
-0.02692093
-0.016591862
-0.013588367
-0.012493639
-0.01234069
-0.013033065
-0.015897839
-0.016762597
-0.0078468118
-0.0057117744
-0.0051832886
-0.0051673834
-0.0054608852
-0.0075744389
-0.0079570411
0.28230864
0.28340714
0.28485816
0.28603579
0.28641819
0.2858358
0.28456014
0.28316312
0.2822158
0.28160389
0.28305015
0.28493323
0.28637631
0.28672022
0.28579786
0.28405285
0.28228617
0.28151097
0.27922138
0.28106173
0.28375028
0.2858566
0.28636336
0.28499231
0.28246057
0.27998735
0.27904912
0.27456046
0.27721938
0.28137746
0.28469715
0.28549999
0.28330766
0.2793437
0.27555243
0.27424484
0.26641469
0.27037023
0.27688765
0.28219993
0.28349454
0.2799484
0.27366022
0.26777182
0.2658868
0.25281432
0.25842401
0.2683284
0.27664409
0.27869965
0.27307886
0.26335918
0.25453444
0.25198142
0.23087136
0.23793943
0.2519132
0.26413787
0.26723088
0.25883687
0.24480741
0.23263881
0.2296758
0.19696032
0.20379063
0.22079873
0.23651024
0.24063883
0.22963308
0.21203173
0.19767592
0.19543442
0.14770071
0.14973891
0.16426154
0.17828843
0.18198773
0.17230661
0.15670065
0.1450282
0.14615628
0.082824368
0.072518341
0.07051823
0.06312454
0.060614029
0.067490466
0.072333893
0.073480568
0.081960062
0.0095807142
-0.018361175
-0.051570616
-0.089301669
-0.099841263
-0.071797527
-0.032661235
-0.0078345345
0.010203618
-0.055809896
-0.094064663
-0.14154279
-0.18894989
-0.20159735
-0.16812428
-0.11618251
-0.076779218
-0.053624811
-0.097326516
-0.12883572
-0.16497564
-0.1971202
-0.20562769
-0.18371522
-0.14636192
-0.11394577
-0.094544336
-0.1114616
-0.12793603
-0.14594127
-0.15972583
-0.16287766
-0.15448118
-0.13691812
-0.12049951
-0.10913198
-0.10576027
-0.10939541
-0.11411625
-0.11607315
-0.11657226
-0.11570413
-0.11197253
-0.10813491
-0.10431482
-0.089973566
-0.086118082
-0.083773726
-0.080932151
-0.080441364
-0.082301786
-0.08532696
-0.088242714
-0.089395227
-0.071376992
-0.064620777
-0.05951686
-0.055426792
-0.054557899
-0.05720425
-0.06241685
-0.067717635
-0.071364632
-0.053869443
-0.046782028
-0.041232898
-0.037284673
-0.036417741
-0.038975957
-0.044189373
-0.049674149
-0.054088185
-0.038850668
-0.032509106
-0.027538282
-0.024219972
-0.023506771
-0.025634292
-0.030009878
-0.034891084
-0.039182194
-0.026512131
-0.021150724
-0.017176469
-0.014596112
-0.01404681
-0.015688416
-0.019088495
-0.023065574
-0.02685613
-0.016342487
-0.012126985
-0.0092492781
-0.0073260956
-0.0069146379
-0.0081427592
-0.010627811
-0.013551268
-0.016651797
-0.0077644999
-0.0051799245
-0.0035177645
-0.0022604088
-0.0019869183
-0.0027989968
-0.0043356219
-0.0058242672
-0.0077433951
0.28271364
0.28340105
0.28561984
0.28814927
0.29008401
0.29069307
0.28974276
0.28760869
0.28509811
0.28310548
0.2850645
0.28149441
0.28304478
0.28596912
0.28915138
0.29144796
0.29197352
0.29051949
0.28766975
0.28449436
0.28212426
0.28165674
0.27902977
0.28105741
0.28523606
0.28991055
0.29335533
0.29414754
0.29194061
0.28769319
0.28308507
0.2797518
0.27912281
0.27426757
0.27721537
0.28367809
0.29113703
0.2967964
0.29811043
0.29443493
0.28753282
0.28029113
0.27518361
0.27436015
0.26597303
0.27036803
0.28051286
0.29263839
0.30216334
0.30441147
0.2981304
0.28668977
0.27512029
0.26719484
0.26606732
0.25216169
0.25841751
0.27388566
0.29330887
0.30931961
0.31318633
0.30244056
0.28361415
0.26553919
0.25368166
0.25226502
0.22997783
0.23794839
0.25985464
0.28934046
0.31536237
0.32188878
0.30396994
0.27431447
0.24782185
0.23148913
0.23009312
0.19584656
0.20381224
0.23067623
0.27051649
0.3090145
0.31894369
0.2918767
0.24967578
0.21562113
0.19634941
0.19600425
0.14658454
0.14978941
0.17306674
0.20913169
0.23228509
0.23593434
0.2240813
0.19085529
0.15970235
0.14394714
0.14681264
0.08212069
0.072602754
0.068644879
0.038589303
-0.0067973196
-0.015129013
0.013705483
0.059041935
0.072070419
0.073394544
0.082511094
0.0098064037
-0.01826793
-0.07314455
-0.18652594
-0.28130143
-0.30164549
-0.24156635
-0.12479777
-0.039155726
-0.0062771102
0.010402869
-0.054549409
-0.094034218
-0.17373709
-0.29552879
-0.39096585
-0.41141754
-0.3505364
-0.23538112
-0.12603052
-0.073897201
-0.053820387
-0.09558156
-0.12891889
-0.19005632
-0.2588751
-0.30866226
-0.32104359
-0.28796112
-0.22626191
-0.15491683
-0.1110856
-0.094932647
-0.10989984
-0.12810606
-0.15737721
-0.18177065
-0.19845099
-0.20262082
-0.19177254
-0.17060624
-0.14180144
-0.11843131
-0.10946227
-0.10472526
-0.1096121
-0.11611928
-0.11866309
-0.12027903
-0.12081557
-0.11983685
-0.11768463
-0.11369036
-0.10714282
-0.1044994
-0.089503923
-0.086307237
-0.081825641
-0.075791153
-0.071983906
-0.071263956
-0.073691263
-0.078681324
-0.084928637
-0.087991763
-0.089473798
-0.071295952
-0.0647564
-0.056425361
-0.048226805
-0.043151472
-0.04212829
-0.045313243
-0.052077799
-0.061059129
-0.067837433
-0.071382866
-0.053993719
-0.046869843
-0.038178676
-0.030414382
-0.025642869
-0.024666857
-0.02764364
-0.034052749
-0.042688087
-0.04993688
-0.054131559
-0.039084223
-0.032564312
-0.024956443
-0.018469528
-0.014494271
-0.013676523
-0.016150258
-0.021500485
-0.028778904
-0.035196756
-0.039243771
-0.026778276
-0.021183902
-0.015162233
-0.010082476
-0.0069277061
-0.0062802134
-0.008236701
-0.012462616
-0.01814136
-0.023324671
-0.026938708
-0.016629765
-0.012148928
-0.007755764
-0.0039078122
-0.0014963797
-0.00099634982
-0.0024969377
-0.0057096897
-0.0099599789
-0.013763666
-0.016788994
-0.0078685433
-0.0051835197
-0.0025588123
0.00010453597
0.0018833307
0.0022638227
0.0011403853
-0.0011628126
-0.0039605554
-0.005828794
-0.0080275429
0.28277636
0.2848454
0.28814377
0.29168848
0.2943316
0.2951525
0.29385794
0.29091945
0.28735665
0.28429918
0.28275712
0.28208843
0.28492202
0.28914504
0.2935221
0.29662319
0.29732456
0.29536321
0.29147949
0.28702872
0.28338267
0.28184449
0.27974343
0.28374097
0.28990566
0.29649013
0.30126202
0.30234809
0.29929569
0.29336731
0.28675717
0.28151125
0.27954239
0.27523189
0.28136614
0.29112997
0.30200453
0.31015333
0.31203131
0.30674512
0.29675418
0.28604263
0.27787414
0.27500452
0.26733508
0.27687859
0.29263216
0.31109414
0.32564591
0.32907313
0.31945673
0.3020087
0.28428448
0.27136246
0.26705914
0.25396628
0.26831922
0.29330517
0.3247178
0.35105381
0.35747563
0.33964461
0.30892807
0.27980526
0.25989535
0.25375429
0.23197726
0.25191861
0.28935338
0.34135379
0.38920954
0.40140989
0.36796677
0.31446002
0.26862977
0.24000728
0.23216771
0.19702253
0.22084755
0.2705899
0.3494727
0.41790233
0.43266511
0.38931203
0.30758076
0.24215618
0.20633933
0.19851488
0.144612
0.16440072
0.20933416
0.24921631
0.26660511
0.27356004
0.25744927
0.23478466
0.183617
0.15200044
0.14907874
0.073474135
0.070762083
0.038537763
-0.045335963
-0.042432696
-0.020893181
-0.058117731
-0.0059964615
0.06244232
0.072708874
0.083133478
-0.0072984167
-0.05155965
-0.18688373
-0.35212823
-0.46128435
-0.41594476
-0.39123619
-0.2779927
-0.10331355
-0.022451646
0.0079866383
-0.075639184
-0.14197155
-0.29598878
-0.4741463
-0.57076003
-0.67164432
-0.54951606
-0.3855678
-0.20944313
-0.10048376
-0.058795897
-0.11257237
-0.16554346
-0.25926603
-0.3605001
-0.47145618
-0.50251226
-0.41474286
-0.30820838
-0.21151427
-0.1331968
-0.099991881
-0.11899972
-0.14636519
-0.18201042
-0.21546531
-0.24646208
-0.25523202
-0.23219143
-0.19867528
-0.16509091
-0.12966032
-0.1128466
-0.10696419
-0.11436311
-0.11879221
-0.12262974
-0.12687178
-0.12821223
-0.12496609
-0.12063652
-0.11697768
-0.10929859
-0.1061415
-0.08762836
-0.083908782
-0.075858652
-0.069073077
-0.065169599
-0.064474718
-0.066803775
-0.072203203
-0.079934822
-0.085402632
-0.089994961
-0.067474705
-0.059592084
-0.048260613
-0.0389573
-0.033344242
-0.032223561
-0.0356852
-0.043250981
-0.053835537
-0.063814198
-0.071209435
-0.049636813
-0.041276833
-0.030431014
-0.021633762
-0.016366248
-0.015304231
-0.018544147
-0.025683582
-0.035728655
-0.046046815
-0.053613255
-0.034954198
-0.027567205
-0.018476815
-0.011134628
-0.0067294502
-0.0058411193
-0.008544347
-0.014514765
-0.022910137
-0.031880204
-0.038598067
-0.023161103
-0.017196996
-0.010085904
-0.0042523222
-0.00076612743
-6.0362963e-05
-0.0021993217
-0.0069366966
-0.013565371
-0.020676499
-0.026311756
-0.013645741
-0.0092635273
-0.0039090227
0.00058538642
0.0033311031
0.0038937237
0.0022034739
-0.0014959797
-0.0065495075
-0.011793733
-0.01627401
-0.0057549322
-0.0035238386
0.0001045243
0.0034916285
0.0057112009
0.0061832339
0.0047916338
0.0018929899
-0.001743777
-0.0050069015
-0.0079087629
0.28661138
0.28324603
0.28601417
0.29007134
0.29432481
0.29746514
0.29843651
0.29689918
0.29339795
0.28909953
0.28529729
0.28299903
0.28170869
0.28274562
0.28635585
0.29143228
0.2966142
0.30026355
0.30108572
0.29877729
0.29419284
0.28888956
0.28442056
0.28224356
0.27919069
0.28068294
0.28583787
0.29334194
0.30125345
0.30696979
0.3082678
0.30461003
0.29749741
0.28951478
0.2830066
0.28007833
0.27452447
0.27667846
0.28467398
0.29677758
0.31014201
0.32017364
0.32248807
0.31596665
0.30368175
0.2904805
0.28019429
0.27582068
0.26638552
0.26958342
0.28217532
0.30214267
0.32563096
0.34428907
0.34868928
0.33633766
0.31402963
0.29156014
0.27501103
0.26832466
0.25280164
0.257328
0.27661262
0.30929679
0.35103876
0.38688528
0.39570722
0.37125329
0.32993418
0.29158843
0.26546101
0.25563754
0.23091046
0.23662033
0.26411044
0.31535811
0.38920631
0.45864354
0.4756417
0.42796201
0.35062885
0.28678374
0.24788877
0.23477321
0.19703795
0.20251218
0.2365253
0.30910145
0.41795613
0.49814713
0.51604344
0.46490745
0.36303192
0.26709683
0.21597624
0.20163044
0.14774626
0.1490969
0.17841315
0.23244828
0.2666591
0.33913306
0.36989898
0.29631253
0.2515504
0.2044124
0.16019998
0.1517263
0.082627615
0.07326217
0.063248095
-0.006592938
-0.041279658
0.19934855
0.30952955
0.045688908
-0.051454608
0.040570688
0.071163484
0.083296168
0.0090723105
-0.015836283
-0.089690633
-0.28163123
-0.45604973
-0.16487308
0.39252288
-0.093497967
-0.38424374
-0.17384076
-0.042407991
0.0037169984
-0.056215107
-0.090052336
-0.18951612
-0.39124705
-0.57108697
-0.61131701
-0.76674807
-0.8317496
-0.51158104
-0.28428692
-0.12697569
-0.066323392
-0.097127865
-0.12478644
-0.19758101
-0.30913968
-0.47135999
-0.7384357
-0.82851912
-0.58888745
-0.37574829
-0.25185982
-0.15263373
-0.10688406
-0.11076505
-0.12533501
-0.15997803
-0.19871668
-0.24656615
-0.30982454
-0.32809079
-0.27739154
-0.22049343
-0.17908475
-0.13843003
-0.11726836
-0.10500601
-0.10871128
-0.11619444
-0.12040096
-0.12692435
-0.13668641
-0.1395637
-0.13169971
-0.12314034
-0.11824756
-0.11115303
-0.10823927
-0.08946007
-0.086420168
-0.080989368
-0.07203326
-0.065184232
-0.062024421
-0.061516982
-0.063171697
-0.068204163
-0.0763833
-0.084054549
-0.090068167
-0.071174601
-0.065182681
-0.05545182
-0.043166925
-0.033343797
-0.027608597
-0.026465601
-0.029927808
-0.037829357
-0.049127737
-0.061250848
-0.070229159
-0.053904834
-0.047342625
-0.037294652
-0.025643739
-0.016359529
-0.010873027
-0.0097570841
-0.013111698
-0.020600197
-0.031293882
-0.043154746
-0.052370812
-0.039016315
-0.033009372
-0.024224104
-0.014489274
-0.0067220289
-0.0021413299
-0.001211221
-0.0040057758
-0.010276477
-0.019212462
-0.029207292
-0.037409544
-0.02671872
-0.021640837
-0.014596971
-0.0069213109
-0.00075987474
0.0028826758
0.0036237052
0.0014003131
-0.0035772749
-0.010667304
-0.018510313
-0.025201344
-0.016582472
-0.01255195
-0.007324756
-0.0014903278
0.0033365221
0.0062449961
0.0068417214
0.0050590213
0.0011144782
-0.0043615991
-0.01020799
-0.015309214
-0.0078942282
-0.0052379444
-0.0022594537
0.0018857251
0.00571304
0.0081957629
0.0087242534
0.0071724483
0.0039152365
-0.00021937474
-0.0040592825
-0.0071779898
0.28233234
0.28341271
0.28638458
0.29066895
0.29513439
0.29842439
0.29944148
0.29783088
0.29416065
0.28964417
0.285619
0.28310057
0.2815955
0.28292723
0.28668771
0.29194552
0.29730304
0.3010733
0.30192248
0.29953786
0.29480021
0.28931217
0.28467981
0.28204227
0.27921671
0.28094289
0.28633072
0.2941199
0.30232526
0.30825289
0.30959928
0.30580661
0.29843046
0.29014945
0.28339538
0.27963822
0.27456893
0.27707569
0.28546079
0.29807434
0.31200286
0.32247067
0.32488788
0.31808159
0.30527114
0.29151691
0.28080153
0.27502251
0.26645243
0.27019806
0.2834471
0.30436657
0.32903283
0.34866463
0.35330093
0.34030312
0.31685246
0.29328577
0.27597174
0.26696607
0.25289953
0.25824873
0.27863049
0.31312265
0.35742159
0.39566779
0.40509426
0.37900101
0.33501742
0.29444497
0.26694675
0.25339681
0.23105291
0.2378874
0.26713447
0.32179725
0.40131506
0.47556614
0.49341991
0.44308835
0.35977856
0.29133244
0.25004576
0.23120262
0.1972014
0.20398419
0.24051144
0.31881652
0.43254788
0.51595974
0.53515285
0.48105059
0.37620481
0.27365992
0.21871357
0.19618286
0.14786374
0.15019996
0.18179872
0.23587072
0.27369823
0.36984439
0.40813387
0.31380869
0.25436041
0.20897884
0.16272116
0.14400801
0.082531967
0.072864028
0.060292516
-0.015804217
-0.022399595
0.30879941
0.43407479
0.11094127
-0.052796284
0.034021107
0.070717663
0.073651245
0.0086004557
-0.018947792
-0.10019258
-0.3029569
-0.41659428
0.39261647
1.019945
0.37858071
-0.39583717
-0.19210753
-0.047954654
-0.0058988312
-0.056969722
-0.094761073
-0.20152342
-0.40526274
-0.65714707
-0.77005352
-0.42044297
-0.82352781
-0.60023982
-0.30203639
-0.13446807
-0.073128649
-0.097783678
-0.12782119
-0.2053825
-0.32109135
-0.50193836
-0.82865095
-0.90488404
-0.65107494
-0.39351231
-0.26152032
-0.15823666
-0.10968758
-0.11110117
-0.12653515
-0.16268957
-0.20235175
-0.25500263
-0.32801955
-0.34545986
-0.29114683
-0.22631933
-0.18237621
-0.14128177
-0.11709124
-0.10503549
-0.1083369
-0.11642573
-0.12064463
-0.12806393
-0.13949558
-0.14254633
-0.13375954
-0.12391615
-0.11860924
-0.11219937
-0.10611733
-0.089350874
-0.085350528
-0.080331797
-0.07114501
-0.064378341
-0.061471244
-0.06100083
-0.06251056
-0.067426246
-0.075687828
-0.084067848
-0.087385558
-0.071087752
-0.064099291
-0.054476374
-0.042045046
-0.032157561
-0.026433874
-0.025290014
-0.02874663
-0.036717393
-0.04814715
-0.060502817
-0.067892591
-0.053778035
-0.046497585
-0.03635616
-0.024606758
-0.0152573
-0.0097341152
-0.0086121135
-0.011984917
-0.01955462
-0.030354363
-0.042333344
-0.050266476
-0.03886388
-0.032442059
-0.02346089
-0.013632461
-0.0058069939
-0.0011943072
-0.0002581719
-0.0030705421
-0.0093999956
-0.018433104
-0.028540993
-0.035532935
-0.026548259
-0.021279311
-0.014013492
-0.0062487787
-3.6115464e-05
0.0036359325
0.0043820835
0.0021431828
-0.0028848525
-0.010053845
-0.018005219
-0.023641879
-0.016450605
-0.01230131
-0.0068909402
-0.00097595714
0.0039097815
0.0068495298
0.0074522361
0.005652484
0.0016593747
-0.0038973168
-0.0098357694
-0.0140456
-0.0076508641
-0.0051331777
-0.0019731724
0.0022735761
0.0061911845
0.00872742
0.0092683738
0.0076829058
0.0043499369
0.00011158896
-0.0038420497
-0.0058359164
0.28313184
0.28578866
0.28970319
0.29382311
0.29687083
0.29781462
0.29632345
0.29292848
0.2887707
0.28510901
0.28287927
0.28245403
0.28575311
0.29047787
0.29532706
0.29874909
0.29952175
0.29735833
0.29306519
0.28811519
0.28398668
0.28214679
0.28025285
0.28494449
0.29189565
0.29925416
0.30457606
0.30578704
0.3023846
0.29576888
0.28835864
0.28236743
0.27993414
0.27601174
0.28325294
0.29438106
0.30669741
0.31592877
0.31805969
0.31206907
0.30075956
0.28860362
0.27919686
0.27559875
0.268538
0.27987961
0.29806219
0.31939138
0.33628344
0.34027044
0.32910682
0.3088999
0.28845746
0.27343195
0.26796561
0.25574808
0.27298015
0.30234223
0.3395551
0.37117651
0.37895071
0.35746174
0.3208534
0.28651589
0.26303979
0.25508095
0.23440985
0.25869379
0.30382401
0.36781813
0.42781821
0.44298239
0.40123011
0.33468887
0.2788757
0.24444275
0.23397129
0.1998476
0.22941853
0.29162653
0.38909969
0.46473652
0.48090658
0.43389484
0.33896971
0.25608375
0.21174635
0.20059835
0.14680571
0.17195132
0.22370982
0.25737089
0.29608873
0.31391833
0.27321464
0.24613501
0.19606301
0.15663493
0.15068406
0.073077914
0.06696413
0.013333857
-0.057814475
0.04680961
0.10837104
-0.026527242
-0.036693321
0.051624437
0.07230457
0.08274087
-0.012005315
-0.072023166
-0.24200526
-0.39618898
-0.09080191
0.37904734
-0.031923842
-0.33744258
-0.14302772
-0.032950551
0.0042533029
-0.083358221
-0.16762238
-0.34986211
-0.5440087
-0.83331182
-0.83536247
-0.83129811
-0.45182453
-0.25291342
-0.11521174
-0.064857222
-0.11937663
-0.18312965
-0.28735163
-0.41443797
-0.58852186
-0.65018293
-0.50339304
-0.34636279
-0.235571
-0.14444054
-0.10544733
-0.12235853
-0.15403852
-0.19131243
-0.2318974
-0.27726835
-0.29102207
-0.25500483
-0.21109484
-0.17360412
-0.13489181
-0.11621106
-0.10780137
-0.11541143
-0.11955011
-0.12477564
-0.13164587
-0.13367765
-0.12823924
-0.12209189
-0.11793192
-0.11058725
-0.1076896
-0.086813631
-0.082109313
-0.073509148
-0.066680369
-0.06312862
-0.062463272
-0.064479817
-0.069856319
-0.077932325
-0.08468593
-0.089960775
-0.065999473
-0.057079743
-0.045195441
-0.035601007
-0.029892516
-0.028716782
-0.032203457
-0.040040733
-0.051094192
-0.062392752
-0.070245242
-0.048172271
-0.038888709
-0.027564174
-0.018484423
-0.013082994
-0.011964102
-0.015278383
-0.022658106
-0.033126533
-0.044506637
-0.05233036
-0.033741331
-0.02557103
-0.016095087
-0.0085004457
-0.0039830173
-0.0030555457
-0.0058135603
-0.0119898
-0.020733622
-0.030418975
-0.037368749
-0.022220781
-0.015644301
-0.0081986316
-0.0021673951
0.0014173732
0.0021538429
-3.6630347e-05
-0.0049310525
-0.011858981
-0.019461231
-0.025157273
-0.012962136
-0.0081154655
-0.0024734744
0.0022221538
0.0050703174
0.0056593727
0.0039129965
5.8188569e-05
-0.0052605468
-0.010910849
-0.015222358
-0.0054212795
-0.0027888263
0.0011513435
0.0047993269
0.0071761763
0.0076856158
0.0061995298
0.0030841297
-0.00085361617
-0.0045042115
-0.0070213983
0.2826207
0.28449945
0.287552
0.29086672
0.29335071
0.29412417
0.29290758
0.29015219
0.28683041
0.28401452
0.28249773
0.2818424
0.28399851
0.287616
0.29142913
0.29414995
0.29476867
0.29304871
0.28965479
0.28580791
0.28274907
0.28175106
0.27955133
0.28240066
0.2876328
0.29330834
0.29744408
0.29838996
0.29574665
0.29062598
0.28496809
0.28062024
0.27935758
0.27506504
0.27927958
0.28746688
0.29669067
0.30362642
0.30522966
0.30073778
0.29225329
0.2832157
0.2765072
0.27471476
0.26719103
0.27357847
0.28660731
0.30192959
0.31395632
0.31679321
0.30886807
0.29443537
0.27973832
0.26923126
0.26659686
0.2539658
0.26324817
0.28350598
0.30882593
0.32983917
0.33493144
0.32080268
0.29619617
0.27264584
0.25669717
0.25303773
0.23245844
0.2446614
0.27417685
0.31433849
0.35050243
0.35962822
0.33459552
0.29381506
0.25803662
0.23560354
0.23114257
0.19880272
0.21183292
0.24948558
0.30743868
0.36289783
0.3759185
0.33874404
0.2768492
0.22839322
0.20115049
0.19719413
0.14915543
0.15642758
0.19058363
0.23467156
0.25143411
0.25410538
0.24591542
0.21499312
0.17105467
0.14783465
0.14772577
0.082628936
0.071959764
0.058766863
-0.0061820666
-0.051152834
-0.053782668
-0.036765454
0.032008138
0.069347186
0.073267082
0.082344299
0.0066805349
-0.033015234
-0.12490615
-0.27823186
-0.38526567
-0.3952116
-0.33752883
-0.20441636
-0.067406603
-0.013187733
0.008494878
-0.060547489
-0.11616129
-0.23514776
-0.38565987
-0.5128593
-0.59937138
-0.45060582
-0.31222036
-0.16536749
-0.085848512
-0.056997458
-0.1015046
-0.1460321
-0.2260194
-0.30829509
-0.37587346
-0.39310271
-0.34599153
-0.26814406
-0.18378157
-0.12203759
-0.097882543
-0.11377883
-0.13651643
-0.17041305
-0.19871981
-0.2206466
-0.22608961
-0.21077769
-0.18513215
-0.1550568
-0.12460794
-0.11129402
-0.10641311
-0.11164319
-0.11754918
-0.12063318
-0.12320178
-0.12378443
-0.12192357
-0.11915334
-0.11590397
-0.10904238
-0.10531361
-0.089686941
-0.085113273
-0.078587376
-0.072182095
-0.068218352
-0.067346774
-0.069762911
-0.075129385
-0.082394942
-0.087320108
-0.089657486
-0.070597185
-0.062284547
-0.05200929
-0.043223599
-0.037823056
-0.036665804
-0.039987905
-0.047258142
-0.057256959
-0.066144707
-0.071215761
-0.052893012
-0.044100835
-0.033999935
-0.025656068
-0.020586349
-0.019518799
-0.022626556
-0.029481908
-0.039006132
-0.048147616
-0.053808756
-0.037889298
-0.029945563
-0.021459753
-0.014489485
-0.010260823
-0.0093745813
-0.011970104
-0.017682436
-0.025642969
-0.033646117
-0.038852312
-0.025626604
-0.019044305
-0.012432402
-0.0069145499
-0.0035636014
-0.0028668905
-0.0049189892
-0.009455656
-0.01568473
-0.022091433
-0.026502898
-0.015643943
-0.010601217
-0.0056924543
-0.0014828533
0.0011244782
0.0016716374
6.6035206e-05
-0.0034268309
-0.0081388211
-0.012838869
-0.016364754
-0.0073427746
-0.0043287076
-0.0011552742
0.0018972189
0.0039179282
0.004354827
0.0030876227
0.00045960385
-0.002793812
-0.0055087059
-0.007805512
0.28174591
0.28309185
0.28502628
0.28728787
0.2890363
0.2895893
0.288728
0.28680709
0.28457692
0.2828643
0.28149277
0.28222444
0.28443094
0.28696745
0.28883379
0.28926675
0.28808303
0.28579097
0.28331128
0.28208401
0.27899349
0.27992212
0.28301321
0.28668471
0.28944762
0.29009266
0.28831644
0.28494704
0.28139242
0.27982685
0.27420488
0.27548635
0.28021842
0.28597011
0.2904138
0.29146197
0.28856533
0.28319766
0.27767914
0.27541332
0.26586529
0.26769135
0.27503251
0.28419729
0.29147736
0.29321336
0.28840483
0.27971478
0.27103543
0.26765901
0.25198523
0.25443313
0.26543479
0.27970528
0.29149054
0.29434911
0.28644056
0.27260702
0.25935624
0.25456962
0.22972272
0.23251373
0.24770588
0.26853332
0.28668278
0.29120363
0.27876319
0.25798464
0.23916447
0.23314968
0.19554956
0.19752758
0.21549972
0.24207756
0.26699839
0.27344099
0.25586285
0.22830118
0.20518879
0.19943223
0.14632927
0.14486963
0.1595914
0.18362905
0.2044152
0.20866933
0.19562788
0.17087967
0.15086173
0.14929478
0.082090293
0.073302975
0.071995811
0.062490651
0.040567497
0.033785795
0.051416526
0.069100054
0.072526543
0.081713759
0.010195961
-0.0079992567
-0.039212273
-0.10364097
-0.17411883
-0.19189019
-0.14253823
-0.067375074
-0.020317256
0.0043830811
-0.053760379
-0.076877889
-0.12610878
-0.20986112
-0.28450329
-0.30165931
-0.25220478
-0.16500327
-0.097537388
-0.063754991
-0.094682955
-0.11397493
-0.1550403
-0.21184602
-0.25215496
-0.26121833
-0.23499796
-0.18339853
-0.13182407
-0.10448424
-0.10916223
-0.1204695
-0.14190783
-0.16529847
-0.17928361
-0.18217779
-0.17322474
-0.15481602
-0.12976838
-0.11593798
-0.10425647
-0.10805294
-0.11374946
-0.11709382
-0.11835517
-0.11848519
-0.11770211
-0.11576001
-0.11010348
-0.10767345
-0.089288615
-0.088149444
-0.084953393
-0.079995206
-0.076437149
-0.075607408
-0.07779302
-0.082310281
-0.086187215
-0.090132692
-0.071245393
-0.067640416
-0.061066683
-0.053863728
-0.049152462
-0.04809176
-0.051008363
-0.057205929
-0.064426843
-0.070306866
-0.054021424
-0.049598893
-0.042687435
-0.035739535
-0.031303104
-0.030313409
-0.033069912
-0.038971896
-0.04644584
-0.05202123
-0.039137243
-0.034831119
-0.028771371
-0.022912326
-0.019214102
-0.018402535
-0.020694313
-0.025619435
-0.032112811
-0.036746838
-0.026825643
-0.023019784
-0.018132472
-0.013563337
-0.010665732
-0.010031875
-0.011832766
-0.015671006
-0.02075831
-0.02447817
-0.016684884
-0.013518582
-0.0099553433
-0.0065495686
-0.0043591057
-0.0038826806
-0.0052447761
-0.0081322304
-0.011862507
-0.014580813
-0.0079037268
-0.0058016044
-0.0039565149
-0.0017458783
-0.00021961575
0.00011776744
-0.0008478712
-0.0027922403
-0.0050596269
-0.0062721021
0.2821307
0.28302657
0.28422129
0.28522395
0.28555202
0.28505173
0.28397437
0.28284407
0.28210424
0.2814405
0.28205533
0.28331389
0.28435681
0.28462348
0.28393985
0.28271709
0.28206978
0.28149838
0.27898013
0.27967786
0.28143515
0.28293283
0.2833291
0.28231428
0.28058463
0.27981233
0.2790444
0.27417227
0.27510965
0.2777986
0.28012297
0.2807405
0.27914836
0.27647311
0.27539917
0.27423823
0.26580437
0.26711242
0.27127708
0.27492702
0.27589796
0.27337372
0.26919313
0.26763825
0.26586707
0.25188282
0.25359207
0.25980777
0.26536974
0.26685343
0.26296528
0.25664489
0.25455613
0.25194475
0.22955724
0.23138929
0.23993051
0.24780179
0.24993568
0.24434294
0.23552902
0.2331395
0.22962036
0.19531412
0.19626602
0.2062851
0.21589391
0.21856278
0.21158603
0.20103505
0.19939425
0.19537937
0.14605205
0.14389225
0.15199877
0.16015341
0.16251355
0.15638152
0.14766721
0.14924078
0.14614459
0.081856347
0.073371535
0.07278807
0.071216851
0.070507973
0.071972536
0.073049899
0.081644004
0.082037978
0.010112947
-0.0062536311
-0.022305763
-0.042350411
-0.048023357
-0.033176173
-0.013406318
0.0043063099
0.010418077
-0.053681361
-0.07385288
-0.10043686
-0.12707636
-0.13433336
-0.11509905
-0.08596833
-0.063813038
-0.053289851
-0.094565516
-0.11104759
-0.1333545
-0.15288255
-0.15803763
-0.14406577
-0.12201991
-0.10451282
-0.0942225
-0.10912373
-0.1184205
-0.1299625
-0.13868649
-0.14110089
-0.13445384
-0.12447158
-0.11593406
-0.10892509
-0.10428585
-0.10719183
-0.1096322
-0.11131935
-0.11205549
-0.11023493
-0.10878065
-0.10764564
-0.10422737
-0.089354584
-0.08808818
-0.085678726
-0.084150271
-0.08397436
-0.084435942
-0.087036914
-0.090099411
-0.08934597
-0.071322882
-0.067952685
-0.064015557
-0.061308382
-0.060443659
-0.062233366
-0.065891764
-0.07028216
-0.071321533
-0.05405177
-0.050039678
-0.046182575
-0.043187664
-0.04229131
-0.04440502
-0.047932456
-0.05201326
-0.054108417
-0.0391489
-0.035281211
-0.031971887
-0.029225702
-0.028509513
-0.030351449
-0.033479562
-0.036757572
-0.039276263
-0.026829085
-0.023386419
-0.020744562
-0.018522497
-0.017982339
-0.019416425
-0.021974679
-0.024505272
-0.026969766
-0.01663328
-0.013806393
-0.011846851
-0.010217447
-0.0098177211
-0.010883132
-0.012762117
-0.014624265
-0.016804908
-0.0077289609
-0.0058499122
-0.0050415822
-0.0040639823
-0.0038297828
-0.0044977826
-0.0054609335
-0.0063357537
-0.0080599906
0.28506349
0.28268317
0.28292302
0.28302843
0.28281561
0.28246522
0.28159111
0.28177429
0.28217421
0.28197992
0.28209034
0.28171317
0.27904921
0.27947019
0.2800095
0.27957391
0.27987794
0.27931424
0.27428437
0.27493037
0.27574969
0.2749582
0.27554125
0.2746686
0.26598484
0.26698191
0.26824813
0.26689762
0.26790847
0.26655085
0.25217301
0.25367572
0.25556152
0.25331575
0.25502131
0.25298428
0.23000363
0.23209842
0.23470181
0.23110884
0.23389411
0.23106524
0.19593155
0.19846232
0.20156239
0.19606248
0.20048532
0.19708734
0.14677392
0.14907198
0.15168693
0.1438707
0.15052529
0.14757502
0.082494697
0.083165644
0.083293576
0.073512455
0.082549817
0.082161916
0.010421043
0.0080523841
0.0037495152
-0.0060023609
0.0040754773
0.0083109141
-0.053793782
-0.058742323
-0.066289149
-0.073168109
-0.06495949
-0.057119574
-0.09491607
-0.099974703
-0.10687329
-0.10967675
-0.10545997
-0.097909838
-0.10946199
-0.11286297
-0.11726902
-0.11705428
-0.11614648
-0.11123729
-0.104524
-0.10618148
-0.10825541
-0.10607425
-0.10758725
-0.10519267
-0.089505734
-0.090043189
-0.090093493
-0.087341269
-0.089856038
-0.089520315
-0.071418971
-0.071263213
-0.070274184
-0.067868621
-0.070158266
-0.071076114
-0.054160365
-0.053663103
-0.052414081
-0.050255244
-0.052262148
-0.05367155
-0.039265445
-0.038647348
-0.037454455
-0.035526887
-0.037321822
-0.038714355
-0.026950883
-0.026354705
-0.025244012
-0.023638709
-0.025136356
-0.026367555
-0.016788497
-0.016301267
-0.015336831
-0.014039481
-0.015226316
-0.016242799
-0.0080073835
-0.0079178922
-0.0072053758
-0.0058156538
-0.007041445
-0.0077165585
0.28504071
0.28239509
0.28186726
0.28192693
0.28265855
0.28276707
0.28198073
0.28227699
0.28228671
0.28208513
0.2819312
0.28289682
0.28300121
0.28235931
0.28251781
0.2867068