/*--------------------------------*- C++ -*----------------------------------*\
  =========                 |
  \\      /  F ield         | OpenFOAM: The Open Source CFD Toolbox
   \\    /   O peration     | Website:  https://openfoam.org
    \\  /    A nd           | Version:  8
     \\/     M anipulation  |
\*---------------------------------------------------------------------------*/
FoamFile
{
    version     2.0;
    format      ascii;
    class       surfaceScalarField;
    location    "150";
    object      phi;
}
// * * * * * * * * * * * * * * * * * * * * * * * * * * * * * * * * * * * * * //

dimensions      [0 3 -1 0 0 0 0];

internalField   nonuniform List<scalar> 
215364
(
-3.3096983e-06
0.0009902919
-0.00013502679
-5.7655278e-06
1.2147543e-05
0.002078149
0.00011835637
-0.0012122424
4.8003121e-07
-3.0622354e-06
0.0012148293
-0.002384239
-1.7176957e-07
3.3028601e-07
-8.7588329e-06
0.0023928521
-0.0012170512
-1.105476e-07
0.0012178799
-7.1506922e-07
-0.0023992705
3.6681412e-08
4.3384406e-09
0.0024023144
-3.0720786e-06
-0.0012216833
-2.8575343e-07
0.0012234544
-1.4818671e-06
-0.002409423
7.5329858e-08
4.0140743e-08
0.00241416
-4.8403583e-06
-0.001230592
-5.5463979e-07
0.0012336949
-2.5457692e-06
-0.0024273655
1.0407815e-07
1.1885845e-07
0.0024347572
-7.6018401e-06
-0.0012457152
-9.4625127e-07
0.0012507965
-4.1307524e-06
-0.0024573229
1.2561404e-07
2.6145597e-07
0.0024686906
-1.1752769e-05
-0.0012699723
-1.5272085e-06
0.0012778799
-6.3768052e-06
-0.0025051434
1.7935723e-07
4.6507598e-07
0.0025222307
-1.7735536e-05
-0.0013068752
-2.3168287e-06
0.0013184566
-9.2665004e-06
-0.0025777903
2.4559384e-07
7.5145641e-07
0.0026023403
-2.5576337e-05
-0.0013592214
-3.2290668e-06
0.0013747601
-1.231329e-05
-0.0026809656
3.2948081e-07
1.0890395e-06
0.0027136263
-3.4102791e-05
-0.0014262162
-3.9769503e-06
0.0014444979
-1.4308281e-05
-0.0028133312
4.2212227e-07
1.3224466e-06
0.0028516366
-4.0102323e-05
-0.0014997355
-4.1302026e-06
0.0015173803
-1.3519459e-05
-0.0029589611
5.3384328e-07
1.2385548e-06
0.0029959805
-3.8826822e-05
-0.0015641552
-3.4721263e-06
0.0015769668
-9.3443641e-06
-0.003086623
6.1400043e-07
7.4281888e-07
0.0031137162
-2.8470837e-05
-0.0016053512
-2.351489e-06
0.0016114552
-3.75606e-06
-0.0031678516
6.367213e-07
4.1162688e-08
0.0031812287
-1.4064431e-05
-0.0016208073
-1.3047561e-06
0.0016214044
7.0510386e-07
-0.003197927
6.1248008e-07
-5.4808655e-07
0.0032002434
-2.3828881e-06
-0.0016175832
-5.5053963e-07
0.0016149113
3.2202987e-06
-0.0031911509
5.6659582e-07
-9.0207371e-07
0.0031869495
4.5385269e-06
-0.0016043936
-1.4705957e-07
0.0016003928
4.1463236e-06
-0.0031649371
5.1496227e-07
-1.0282002e-06
0.0031581674
7.2862379e-06
-0.0015878851
1.3419185e-07
0.0015837416
4.0081521e-06
-0.0031324064
4.753197e-07
-1.0782022e-06
0.0031253283
7.6846728e-06
-0.0015718033
3.1474664e-07
0.0015680548
3.432533e-06
-0.0031004045
4.7494227e-07
-1.0742671e-06
0.0030940396
6.9681418e-06
-0.0015575577
3.5739325e-07
0.0015543177
2.8813611e-06
-0.0030716761
4.7885544e-07
-1.0027629e-06
0.0030661898
6.0141722e-06
-0.0015452204
1.9608706e-07
0.0015423584
2.665544e-06
-0.0030462125
5.8832917e-07
-9.3882396e-07
0.0030413491
5.2179805e-06
-0.001534
-2.1153933e-08
0.0015311884
2.8326869e-06
-0.003022333
8.4181324e-07
-1.0374225e-06
0.0030170928
5.439789e-06
-0.0015181056
-1.0112066e-06
0.0015025648
1.6553181e-05
1.7723884e-06
-0.0029847357
-2.2805873e-06
0.0029517491
3.3497671e-05
-9.5408305e-06
-9.6765605e-05
2.5673526e-05
0.0033548336
1.3500529e-05
-2.1155026e-05
-1.6170982e-05
1.4350138e-05
0.002964251
3.9971561e-05
-3.0189395e-05
-9.9047083e-06
7.1410413e-06
0.0028587717
2.7312445e-05
-1.462504e-05
5.3666558e-08
-2.1272422e-06
0.0027942637
1.406183e-05
-3.692567e-05
9.946784e-06
-1.1802314e-05
0.00288498
3.3408975e-05
-1.5555196e-05
1.6179659e-05
-1.6059379e-05
0.0030169544
3.6977847e-05
9.6768031e-05
9.2024717e-05
0.0022786519
5.9301309e-05
-0.0033902146
9.5661059e-08
2.5149222e-07
4.9438652e-07
1.3511607e-06
0.0033880641
-7.0249757e-06
-0.011452367
-9.7566512e-06
4.1333724e-05
0.011341926
0.00013280437
-1.7480816e-05
-1.6880704e-06
2.1802524e-06
-2.8208916e-05
-2.8465276e-06
1.3192915e-06
-2.1893243e-05
-0.011288757
-3.6586256e-05
2.1310096e-05
0.011241065
8.6027695e-05
-1.5065365e-05
5.1749172e-06
8.9371177e-06
1.0477741e-05
-0.01110854
-3.6855678e-08
-2.1296959e-05
0.011068689
5.0944522e-05
-2.4546378e-05
-0.011430393
-4.1506548e-05
0.011353217
0.0001234779
3.6771856e-05
-2.2251733e-05
3.2302772e-06
2.2150001e-06
-0.0028507093
-5.1806059e-06
9.8079813e-06
-6.4828107e-06
2.2641008e-05
0.0028299668
-0.002432103
-1.960771e-07
8.8906321e-07
-9.487304e-07
0.0024323769
6.868725e-07
-0.0033880675
6.1982673e-07
-1.0581881e-06
0.0033897436
-1.8844953e-06
3.0958439e-06
4.1123932e-07
-0.011289731
2.8159298e-07
0.011274076
-4.5452621e-06
3.2752956e-08
5.3581758e-06
7.7565691e-06
3.1683906e-06
-8.390321e-06
8.6787046e-06
-2.2365183e-07
-1.6242332e-06
-0.011202581
1.6686554e-06
0.011189975
-1.0842816e-05
-1.5230157e-06
1.1937988e-05
1.3436079e-05
2.4452489e-05
-0.011047807
2.1778409e-07
-2.0534736e-06
0.011042426
-1.6975494e-05
-7.6981617e-07
-0.011303674
-6.6551211e-07
0.011287767
-4.8729475e-06
2.075728e-06
3.4762401e-07
1.0612352e-05
9.4129468e-06
2.0896759e-06
-0.0028187402
-3.1708165e-07
8.7090136e-07
0.0028158566
2.8444844e-07
-0.002434371
-5.1801114e-07
2.6156236e-07
0.0024360655
-1.4192358e-06
1.5346865e-06
-0.0034000798
1.4477977e-06
-2.7459071e-06
0.0034049589
-5.0780715e-06
9.3309504e-06
4.3214629e-06
-0.011280033
-1.9044707e-05
0.011302078
-6.4847721e-05
8.0898694e-06
1.0946444e-05
1.3043954e-05
6.3956963e-06
-2.0219852e-06
1.1926862e-05
1.0594222e-05
1.4354224e-05
-0.01119426
-7.5079294e-06
0.01121241
-8.5417906e-05
9.4608838e-06
1.9507617e-05
2.1093531e-05
6.4742231e-05
-0.011049294
3.8357951e-07
6.8154728e-06
0.011067914
-9.0274575e-05
9.1336524e-06
-0.01129214
1.843618e-05
0.011311888
-7.6394479e-05
-1.3639952e-05
9.8763601e-06
1.7217815e-05
1.5852122e-05
6.5159398e-06
-0.0028234495
-4.181943e-06
3.9031833e-06
0.0028248493
-7.5963516e-06
-0.0024441574
-1.2969702e-06
7.0078263e-07
0.0024478562
-3.0883895e-06
2.6396523e-06
-0.0034251434
2.5547275e-06
-4.862074e-06
0.0034338981
-9.056352e-06
1.6918696e-05
8.5232197e-06
-0.011338883
-3.7718375e-05
0.011391293
-0.00012601656
1.6680666e-05
1.8573076e-05
2.0973821e-05
1.0504206e-05
3.0737145e-06
1.6279538e-05
2.292513e-05
2.9140895e-05
-0.011243923
-1.5556235e-05
0.011290075
-0.00016876448
2.226297e-05
3.1068339e-05
3.3024641e-05
0.00011883789
-0.01109862
5.3252622e-07
1.4580278e-05
0.011143201
-0.00017822459
1.9964156e-05
-0.011345887
3.6864363e-05
0.011395104
-0.00015068954
-2.8157298e-05
2.0239363e-05
2.7239063e-05
2.5527226e-05
1.1759308e-05
-0.0028417708
-8.3310113e-06
7.25788e-06
0.0028468266
-1.5713456e-05
-0.0024626976
-2.3529984e-06
1.2980676e-06
0.0024690781
-5.3173568e-06
4.2486092e-06
-0.0034677658
4.1840305e-06
-7.9438862e-06
0.0034821325
-1.4841113e-05
2.7934674e-05
1.4435871e-05
-0.011461643
-6.3154752e-05
0.011553233
-0.00021096451
2.8649811e-05
2.9859725e-05
3.3026164e-05
1.6485312e-05
9.4828632e-06
2.2856641e-05
4.0230503e-05
4.9088225e-05
-0.011353205
-2.6294483e-05
0.011436906
-0.00028649588
4.0073803e-05
4.8667414e-05
5.1281029e-05
0.00019729157
-0.011204015
7.0984648e-07
2.4961019e-05
0.011284882
-0.00030354441
3.5050152e-05
-0.011461897
6.2004505e-05
0.011549658
-0.00025436763
-4.7782451e-05
3.4749951e-05
4.2514575e-05
4.0231183e-05
1.9345799e-05
-0.0028751089
-1.4184352e-05
1.2038613e-05
0.002885002
-2.7077079e-05
-0.0024937117
-3.9325453e-06
2.1904367e-06
0.002504054
-8.5961478e-06
6.5104315e-06
-0.0035358245
6.524735e-06
-1.2321381e-05
0.0035581564
-2.3017172e-05
4.363525e-05
2.273907e-05
-0.011670305
-9.8997957e-05
0.011817566
-0.0003316354
4.556658e-05
4.5836973e-05
5.0284622e-05
2.4844289e-05
1.8333734e-05
3.2345253e-05
6.4829705e-05
7.7285587e-05
-0.011545618
-4.1510249e-05
0.011684932
-0.00045671314
6.5329631e-05
7.4043401e-05
7.7689337e-05
0.00030968727
-0.011390223
9.6987078e-07
3.9657725e-05
0.011525894
-0.0004856595
5.6432407e-05
-0.011662855
9.7492156e-05
0.011806563
-0.00040302887
-7.5567678e-05
5.5317283e-05
6.449997e-05
6.1315318e-05
3.0128663e-05
-0.0029296253
-2.2426652e-05
1.878956e-05
0.0029463149
-4.3181116e-05
-0.0025429754
-6.2093446e-06
3.4771855e-06
0.002558935
-1.3249177e-05
9.3884124e-06
-0.0036387647
9.508171e-06
-1.7942014e-05
0.0036713038
-3.3484727e-05
6.3984545e-05
3.3337206e-05
-0.012000086
-0.00014532443
0.012222152
-0.00048947607
6.7555762e-05
6.6114801e-05
7.2430975e-05
3.5238802e-05
2.9857422e-05
4.4669589e-05
9.7092786e-05
0.00011413991
-0.011860861
-6.1376525e-05
0.012079794
-0.00068562349
9.8522399e-05
0.00010688917
0.00011203849
0.0004571752
-0.011698075
1.39705e-06
5.8938246e-05
0.011913746
-0.00073249426
8.4404315e-05
-0.011986527
0.00014350251
0.012208022
-0.00060063762
-0.00011177654
8.2127833e-05
9.2932227e-05
8.8421422e-05
4.408082e-05
-0.0030136719
-3.2944515e-05
2.742458e-05
0.0030392658
-6.4159616e-05
-0.0026172354
-9.1388309e-06
5.1532616e-06
0.0026403985
-1.9216518e-05
1.242764e-05
-0.0037837125
1.2584876e-05
-2.3829254e-05
0.0038270766
-4.4566241e-05
8.5715076e-05
4.426175e-05
-0.012486631
-0.00019449354
0.012793238
-0.00066113585
9.131295e-05
8.6872873e-05
9.5523717e-05
4.5387427e-05
4.2372085e-05
5.7670838e-05
0.00013227373
0.00015350541
-0.012346557
-8.2893125e-05
0.012663331
-0.00094423656
0.00013497474
0.00014138947
0.00014844586
0.00061739832
-0.012178146
1.9064942e-06
7.9429507e-05
0.012494177
-0.001014501
0.00011490603
-0.0124751
0.00019223246
0.012788642
-0.00082072508
-0.00015050813
0.00011111837
0.00012287006
0.00011665563
5.9096906e-05
-0.0031346866
-4.3838245e-05
3.6427303e-05
0.0031700021
-8.7052845e-05
-0.0027215009
-1.2206984e-05
6.9522239e-06
0.0027522576
-2.5561135e-05
1.4474132e-05
-0.0039678826
1.4489741e-05
-2.7679266e-05
0.0040185615
-5.2023932e-05
0.00010032375
5.0844418e-05
-0.013136251
-0.00022511249
0.013502544
-0.0007767564
0.00010781896
9.903806e-05
0.0001098279
5.0316754e-05
5.1160627e-05
6.5945064e-05
0.00015642009
0.00017793615
-0.013025698
-9.6402973e-05
0.013423685
-0.0011301693
0.00016052588
0.00016227398
0.00017113815
0.00072400519
-0.012858312
2.5723e-06
9.1666268e-05
0.013263328
-0.001223601
0.00013624356
-0.013143666
0.00022254049
0.013527194
-0.0009745885
-0.00017427793
0.00013092663
0.00014155803
0.00013368695
6.9642167e-05
-0.0032922829
-5.0438634e-05
4.2103563e-05
0.0033344016
-0.0001035206
-0.0028535089
-1.4178991e-05
8.2106245e-06
0.0028893252
-2.9932806e-05
1.3928817e-05
-0.00416912
1.3576008e-05
-2.6409708e-05
0.0042179546
-5.0014047e-05
9.5560616e-05
4.6787088e-05
-0.013871805
-0.00020969881
0.01421943
-0.00073393108
0.00010379793
9.0944295e-05
0.00010248182
4.4223631e-05
4.9241881e-05
6.2408621e-05
0.00014826395
0.00016570329
-0.01383807
-9.0308544e-05
0.014237159
-0.0010834822
0.00015322902
0.00014869563
0.00015818652
0.00067958443
-0.013689052
2.9943205e-06
8.5054827e-05
0.014101714
-0.0011809709
0.00013070013
-0.013919958
0.0002073954
0.014295108
-0.00093105525
-0.00016215723
0.00012465448
0.00013159103
0.00012305943
6.7859806e-05
-0.0034679293
-4.6465806e-05
3.9484268e-05
0.0035081486
-0.00010120603
-0.0029973081
-1.3383904e-05
8.0304669e-06
0.0030318017
-2.9212227e-05
1.0064627e-05
-0.0043461621
9.4295207e-06
-1.904703e-05
0.0043819105
-3.6270792e-05
6.7372394e-05
3.0747613e-05
-0.014521738
-0.00014725266
0.014761325
-0.00050688371
7.4512326e-05
6.1002824e-05
7.1230745e-05
2.7400814e-05
3.4876128e-05
4.6853682e-05
0.00010176326
0.00011794118
-0.014589095
-6.5876087e-05
0.014859388
-0.0007386609
0.00010656456
9.942064e-05
0.00010793767
0.00046698094
-0.014462507
4.3758359e-06
5.8662841e-05
0.014729573
-0.00079774733
9.2203825e-05
-0.014624489
0.00014550095
0.014885603
-0.00064543362
-0.000114022
8.6752656e-05
9.0511413e-05
8.2726567e-05
5.0660539e-05
-0.0036221691
-3.055206e-05
2.7081647e-05
0.0036496778
-7.4802834e-05
-0.00312375
-9.3408483e-06
6.1188769e-06
0.00314913
-2.2209448e-05
4.4320834e-06
-0.0044612295
3.9680916e-06
-8.9075293e-06
0.0044785511
-1.6862905e-05
2.9437885e-05
1.0297506e-05
-0.014931366
-6.7619565e-05
0.015031335
-0.00021531003
3.4369281e-05
2.4430014e-05
3.2202686e-05
8.3475284e-06
1.557223e-05
2.7925459e-05
4.1372656e-05
5.8228734e-05
-0.015026917
-3.8745946e-05
0.015094578
-0.0002628509
4.5048832e-05
4.120495e-05
4.7659376e-05
0.00020113439
-0.014883183
8.4449296e-06
2.4509036e-05
0.014930799
-0.00028215836
4.0443905e-05
-0.01506248
6.4672203e-05
0.015153138
-0.00025655575
-5.0197741e-05
3.6364554e-05
4.0216854e-05
3.397128e-05
2.6014132e-05
-0.0037190122
-1.0137895e-05
1.0550205e-05
0.0037296991
-3.717476e-05
-0.0032062679
-3.9412162e-06
3.4255565e-06
0.0032188082
-1.2041639e-05
-5.1718709e-07
-0.0045061382
-3.4755441e-07
-4.3124957e-07
0.0045079597
-5.5427941e-07
-1.1413014e-06
-5.3374808e-06
-0.015068541
-9.5702255e-06
0.015053142
2.4250998e-05
1.4969674e-06
-3.3534947e-06
1.8695675e-06
-5.0228462e-06
-6.8639761e-07
1.2681863e-05
-4.9655353e-06
1.4865966e-05
-0.015077324
-1.9152475e-05
0.014989264
9.9225165e-05
-3.1922738e-06
-1.4037694e-06
2.4498827e-06
-8.357179e-06
-0.014887728
1.4825783e-05
-6.6688581e-06
0.01477065
0.00011703313
-2.622372e-07
-0.015167635
2.5034422e-06
0.01511931
4.5767404e-05
1.6681803e-06
-2.6623308e-06
2.7634969e-06
-1.6584104e-06
5.0358389e-06
-0.0037534775
5.64674e-06
-2.7104323e-06
0.0037510529
-5.5695259e-06
-0.0032389866
3.5477533e-07
1.1302637e-06
0.003240613
-3.1038903e-06
-3.5800176e-06
-0.0044987485
-2.601353e-06
4.5033842e-06
0.0044912419
9.1689119e-06
-1.830313e-05
-1.2554281e-05
-0.014995803
2.4767982e-05
0.014906788
0.00016440036
-1.7766195e-05
-1.8153223e-05
-1.5238831e-05
-1.0482772e-05
-1.0952183e-05
3.1934695e-06
-3.1888326e-05
-1.0607656e-05
-0.014846452
-9.9314932e-06
0.01466614
0.00031531778
-3.2318674e-05
-2.5874337e-05
-2.4502015e-05
-0.00013391906
-0.014600444
2.2223714e-05
-2.9928262e-05
0.014396232
0.00034572304
-2.4277648e-05
-0.015020492
-3.8959029e-05
0.014883041
0.00022703212
3.8787594e-05
-2.4802815e-05
-1.8968314e-05
-2.1432396e-05
-7.8385293e-06
-0.0037439651
1.3297639e-05
-9.6665513e-06
0.0037341812
1.3986989e-05
-0.0032343152
2.6264766e-06
-3.2157198e-07
0.0032293085
2.7156524e-06
-4.7992388e-06
-0.0044630332
-3.1614479e-06
6.259341e-06
0.0044516343
1.3095855e-05
-2.5182771e-05
-1.3643846e-05
-0.014793529
3.751497e-05
0.014662526
0.00023482644
-2.6496824e-05
-2.3780004e-05
-2.2760133e-05
-1.0757799e-05
-1.6685207e-05
-2.078737e-06
-4.3429299e-05
-1.9163142e-05
-0.014464269
-7.9113636e-06
0.014253994
0.00039937728
-4.5599412e-05
-3.6384573e-05
-3.6670602e-05
-0.0001863848
-0.014175303
2.9532642e-05
-4.6274502e-05
0.013951822
0.00042656125
-3.537106e-05
-0.014719205
-6.1232164e-05
0.014539788
0.00030838249
6.0245932e-05
-3.4205915e-05
-2.8810255e-05
-2.9599956e-05
-1.3577338e-05
-0.0037109779
1.5263613e-05
-1.1511852e-05
0.0036978098
2.3000837e-05
-0.0032091441
3.2298171e-06
-1.0254506e-06
0.003201284
5.671664e-06
-4.8749812e-06
-0.0044173871
-2.8310447e-06
6.100676e-06
0.0044054404
1.3554504e-05
-2.6433439e-05
-1.1683164e-05
-0.01451985
3.7361207e-05
0.014371135
0.00025943999
-2.9103167e-05
-2.4621277e-05
-2.4835428e-05
-8.6027481e-06
-1.8931827e-05
-3.8878644e-06
-4.6750598e-05
-1.8339205e-05
-0.014044963
-9.7351118e-06
0.013843503
0.00040488451
-4.9738152e-05
-3.8905739e-05
-3.9976674e-05
-0.00020513555
-0.013734964
3.6001347e-05
-5.7392962e-05
0.013530268
0.00043121228
-3.8217432e-05
-0.01435432
-7.2016623e-05
0.014170021
0.00032054404
7.2114721e-05
-3.5989945e-05
-3.1071274e-05
-3.1046119e-05
-1.4823724e-05
-0.0036669617
1.466426e-05
-1.0642709e-05
0.0036521864
2.5585193e-05
-0.0031766257
2.9639656e-06
-1.2905683e-06
0.0031683243
6.6404043e-06
-4.4200874e-06
-0.0043723159
-2.2433624e-06
5.0338277e-06
0.0043614036
1.2550631e-05
-2.5298608e-05
-8.9468186e-06
-0.014221137
3.1584022e-05
0.014073932
0.00025394042
-2.8769395e-05
-2.3534031e-05
-2.4170878e-05
-6.041567e-06
-1.8468413e-05
-3.0819841e-06
-4.6612783e-05
-1.3116704e-05
-0.013654254
-1.3992777e-05
0.013479845
0.00037685431
-5.0096552e-05
-3.873337e-05
-3.9892794e-05
-0.00020189587
-0.01334086
4.1355122e-05
-6.4163305e-05
0.013168273
0.00039729708
-3.7334506e-05
-0.013991639
-7.7149245e-05
0.013822884
0.00029849566
7.84557e-05
-3.4578345e-05
-2.9893357e-05
-2.9214411e-05
-1.4102429e-05
-0.0036173696
1.36522e-05
-9.2230806e-06
0.0036017467
2.5305195e-05
-0.0031444818
2.4698361e-06
-1.3377565e-06
0.003136923
6.4277476e-06
-3.8163945e-06
-0.004331829
-1.7310363e-06
3.8549087e-06
0.0043221979
1.1332272e-05
-2.3481847e-05
-6.5949984e-06
-0.013932442
2.3097024e-05
0.013799689
0.00023295149
-2.7507364e-05
-2.1750253e-05
-2.2456032e-05
-3.8574787e-06
-1.6808007e-05
-8.2592166e-07
-4.5654791e-05
-5.6857724e-06
-0.013321715
-1.9100036e-05
0.013180836
0.00033482363
-4.9032764e-05
-3.6855911e-05
-3.7606527e-05
-0.00018725062
-0.013013219
4.5619696e-05
-6.7988117e-05
0.012875881
0.00034696872
-3.5993664e-05
-0.01366663
-7.8803294e-05
0.013524788
0.00026334279
8.0924477e-05
-3.2847055e-05
-2.7781007e-05
-2.697634e-05
-1.3152913e-05
-0.003564876
1.3255243e-05
-8.4599948e-06
0.00354894
2.430016e-05
-0.0031159767
2.1205749e-06
-1.3293461e-06
0.003109479
5.6996502e-06
-3.346602e-06
-0.0042961795
-1.2433701e-06
2.7382639e-06
0.0042875869
1.044514e-05
-2.2067736e-05
-4.7136799e-06
-0.013679161
1.0858476e-05
0.013575466
0.00019995001
-2.6753175e-05
-2.0148969e-05
-1.9915187e-05
-1.7626745e-06
-1.4874082e-05
3.1389505e-06
-4.4060032e-05
5.1427396e-06
-0.013058182
-2.6167507e-05
0.01295538
0.00028074051
-4.7210198e-05
-3.2766191e-05
-3.2863403e-05
-0.0001663334
-0.012756135
4.8959011e-05
-6.804294e-05
0.012654359
0.00028720832
-3.4611062e-05
-0.01339941
-7.5564743e-05
0.013293727
0.00021632581
7.8298071e-05
-3.1360735e-05
-2.402765e-05
-2.3353915e-05
-1.2181217e-05
-0.0035129747
1.333677e-05
-8.5429394e-06
0.0034977663
2.2601411e-05
-0.0030916018
1.9830972e-06
-1.2919558e-06
0.0030860185
4.8876829e-06
-3.0691292e-06
-0.0042645178
-5.8621719e-07
1.5069445e-06
0.0042570593
9.6060058e-06
-2.0128821e-05
-1.9612886e-06
-0.013496831
-1.6159704e-05
0.013461093
0.00012402148
-2.6086929e-05
-1.6437245e-05
-1.2630622e-05
2.85527e-06
-1.1469724e-05
1.3773278e-05
-4.2152655e-05
2.965865e-05
-0.012876375
-4.2272773e-05
0.012830747
0.00019419443
-4.5597207e-05
-2.3435134e-05
-2.4734028e-05
-0.00014650118
-0.012571764
5.1550013e-05
-5.7713971e-05
0.012511765
0.00021269905
-3.2698269e-05
-0.013214292
-5.6486691e-05
0.013175902
0.00012428856
6.0697773e-05
-2.9358974e-05
-1.4259335e-05
-1.3752878e-05
-1.026456e-05
-0.0034683592
1.2505419e-05
-8.0821309e-06
0.0034564309
1.7775241e-05
-0.0030705358
1.980605e-06
-1.2967863e-06
0.0030657051
4.143937e-06
-6.9194755e-06
-2.5348937e-06
-0.004239582
3.8957404e-06
0.00423035
1.4792329e-05
-1.157394e-05
1.3234156e-05
-7.5176399e-05
-5.8856305e-05
-1.6911989e-05
1.047485e-06
2.4856585e-05
-0.013492187
0.0034629405
0.0034133961
0.0033662875
0.0032932269
2.4155226e-05
9.0107732e-06
4.6591107e-05
-2.6291884e-05
8.7989905e-05
-7.0043843e-05
9.9964051e-05
0.0032705353
0.0032178957
0.0031032264
0.0031373472
-0.012797912
-4.1252112e-05
1.8584354e-05
-1.4391131e-09
-0.00014743233
5.3721479e-05
-3.4662549e-05
0.0001498873
0.003151305
0.0031725494
0.0030725836
0.0030598005
-0.012477711
-7.3486022e-06
8.2133043e-06
-4.8275472e-06
-1.2547997e-05
-0.013169197
0.0033316713
0.0033628555
0.0032267041
0.0031847426
-7.8161026e-06
4.4425841e-05
4.3165747e-05
-6.5350635e-06
-0.0034635993
-6.9231348e-07
7.6767372e-07
0.0034871239
-1.7056747e-05
5.0014633e-06
-0.0030519821
-5.9154337e-06
0.0030401945
1.2700668e-05
-2.2257337e-05
-2.1292724e-05
1.6158742e-05
0.0030824128
1.6049121e-05
-3.6264057e-05
-2.7398678e-05
0.0028575596
2.1805343e-05
2.8986402e-05
-1.9026385e-05
-9.0248373e-06
0.0027800235
5.9800703e-06
1.0648361e-05
-6.7554816e-06
-2.0194201e-06
1.2078884e-06
0.0027620298
3.3468392e-06
-3.4213171e-06
8.0885793e-09
-3.4927066e-07
0.00275873
1.6567267e-06
-8.7746838e-06
2.0289523e-06
-2.7604881e-06
0.0027637691
4.4433377e-06
-2.3901453e-05
9.030825e-06
-1.2159747e-05
0.0027902945
1.411175e-05
-3.4938348e-05
2.7379542e-05
-2.9301859e-05
0.002900848
3.3628109e-05
-2.5640189e-05
2.1656837e-05
-8.3086543e-07
0.0031928111
2.4550282e-05
-0.0028938913
-1.1991341e-06
-1.5058299e-06
6.741769e-06
6.7269466e-06
0.0028831651
-0.00011970166
-0.011355472
-9.3811255e-05
9.7193124e-05
0.011340757
0.00013124683
-0.011221322
-0.00013596026
-7.8833074e-05
5.6646381e-05
0.011276237
0.0001034907
-0.011116573
-8.0995346e-05
-3.6132764e-05
1.7438198e-05
0.011158416
5.8113475e-05
-0.011089618
-5.9699037e-05
1.5951194e-07
-1.7668149e-05
0.011122402
4.4699714e-05
-0.011159525
-0.00011049813
3.643943e-05
-5.6832095e-05
0.01121098
7.9722065e-05
-0.00014749186
-0.011289763
7.9038651e-05
-9.7112201e-05
0.011332675
0.00012295043
-0.01151793
-3.0701397e-05
0.011414419
0.00011597952
9.2927712e-05
-1.1824013e-05
-2.4302139e-06
-3.2553925e-06
-1.4617364e-05
-4.2163041e-05
-3.0655603e-06
2.8965718e-06
-0.0032354325
4.553015e-07
1.8640109e-06
-4.3650673e-08
1.7319492e-06
0.0032314694
1.5425046e-06
1.5698438e-06
-0.0028757151
-1.6229392e-06
0.0028758516
-1.5901349e-06
-9.3330979e-07
-3.7787267e-06
-0.011297765
1.2985428e-05
0.011271706
1.8031763e-05
-1.4803722e-05
-0.011304748
-1.7080077e-05
1.5150104e-05
0.01129831
2.3472571e-05
-2.1779905e-06
-0.011186015
-1.0294393e-05
5.6367859e-06
0.011199978
-6.8300569e-06
7.6458047e-06
-0.011144816
2.8861959e-07
-6.1115e-06
0.011159643
-1.6334181e-05
-1.1876331e-05
-0.01124477
1.0840949e-05
-1.5573225e-05
0.011253034
8.6780862e-06
-9.8875317e-06
-0.011330887
1.7566113e-05
-1.3410874e-05
0.011310126
2.6836655e-05
-1.3031452e-06
-0.011347824
0.011320367
3.7246641e-06
3.4146215e-06
2.6059805e-06
4.8076789e-06
5.3233749e-06
1.1664763e-06
5.9907477e-06
1.2386157e-05
-1.0409132e-05
7.8627973e-07
-0.0032310988
-1.2572233e-06
5.5539007e-07
0.0032320057
-9.5064121e-07
3.9434388e-06
3.9981566e-06
-0.002883101
-5.793004e-06
0.0028867546
-5.7664664e-06
5.472101e-05
4.280846e-05
-0.011267375
-4.4766864e-05
0.01128034
-6.5432206e-05
8.2035256e-05
-0.011292683
4.2575577e-05
-3.5730504e-05
0.011297794
-9.363339e-05
0.00010492922
-0.011198175
2.5977815e-05
-1.3667877e-05
0.011200075
-0.00011880843
0.00011091628
-0.011160635
4.5451177e-07
1.2880228e-05
0.011162283
-0.00012554566
9.4743005e-05
-0.011249319
-2.5138792e-05
3.5065758e-05
0.011252436
-0.00010741196
6.9396915e-05
-0.011304526
-4.1867287e-05
4.4173083e-05
0.01131305
-7.9839286e-05
9.9805688e-06
-0.011320885
0.011337243
-5.1664604e-05
-4.2979569e-05
9.738617e-06
1.0482718e-05
1.1299565e-05
7.7076869e-06
1.1408908e-05
1.7656221e-05
2.5487024e-07
1.5580876e-06
-0.0032425112
-3.6651659e-06
1.283358e-06
0.0032465338
-3.1576343e-06
6.9248616e-06
6.9939725e-06
-0.0029032604
-1.0547059e-05
0.0029104529
-1.0520325e-05
0.00010843989
8.699866e-05
-0.011308099
-9.737987e-05
0.011351725
-0.00014133851
0.00017401179
-0.011313471
9.7338463e-05
-8.5336931e-05
0.011341216
-0.00021331537
0.00022224989
-0.011207455
6.3631044e-05
-3.4140024e-05
0.011222488
-0.00026639063
0.00023337091
-0.011167882
6.4635789e-07
3.2999516e-05
0.011179922
-0.00027865644
0.00020191032
-0.011263291
-6.2461554e-05
8.4411714e-05
0.011283823
-0.00024396947
0.000143473
-0.011334494
-9.6403822e-05
9.6620866e-05
0.011370223
-0.00017896441
1.9634317e-05
-0.011372565
0.011421661
-0.00010419903
-8.7017559e-05
1.7574514e-05
1.8652242e-05
1.9036654e-05
1.4783872e-05
1.8392519e-05
2.5165512e-05
9.1175619e-06
2.5733659e-06
-0.0032666206
-6.6350245e-06
2.2468709e-06
0.0032743305
-5.8642811e-06
1.1245388e-05
1.1321662e-05
-0.0029387148
-1.7320559e-05
0.0029508111
-1.729715e-05
0.00018152329
0.00014638268
-0.011412546
-0.00016709393
0.011494708
-0.00024251853
0.00029929493
-0.011382996
0.00016991557
-0.00015132881
0.011443156
-0.00037749345
0.00038815321
-0.011247566
0.00011406808
-6.1607148e-05
0.011287136
-0.00047970934
0.00040886541
-0.011200833
9.0250217e-07
6.000201e-05
0.011235127
-0.00050357587
0.0003504462
-0.011316194
-0.00011247084
0.00015008454
0.011364875
-0.00043622921
0.00024357743
-0.011421748
-0.00016871402
0.00016617728
0.011493482
-0.00031218448
3.2039638e-05
-0.01149207
0.011581339
-0.0001749049
-0.00014627626
2.8606767e-05
3.1018509e-05
3.0308278e-05
2.4726921e-05
2.8566089e-05
3.6565341e-05
2.0371085e-05
4.049061e-06
-0.0033076133
-1.0944529e-05
3.675606e-06
0.0033206238
-9.7734092e-06
1.732515e-05
1.7405261e-05
-0.0029958816
-2.6857447e-05
0.0030148723
-2.6840135e-05
0.00028433147
0.00022964806
-0.01160201
-0.00026578749
0.011741009
-0.00038649712
0.00048011624
-0.011526832
0.00027419656
-0.00024761959
0.011642278
-0.00062142117
0.00063458627
-0.011346975
0.0001887199
-0.0001026241
0.011436531
-0.00080956483
0.00067153288
-0.011288579
1.2901618e-06
0.00010036623
0.011370945
-0.0008548329
0.00056825423
-0.011435366
-0.00018654646
0.00024602453
0.011536659
-0.00072832474
0.00038588002
-0.011589744
-0.00027273064
0.00026477703
0.011718148
-0.00050558245
4.9134162e-05
-0.011699308
0.011845017
-0.00027413296
-0.00022942531
4.4095353e-05
4.8665285e-05
4.607504e-05
3.8672011e-05
4.280651e-05
5.2892818e-05
3.5832573e-05
6.1268413e-06
-0.0033729504
-1.7007403e-05
5.7002248e-06
0.0033934235
-1.5296621e-05
2.5045184e-05
2.5124816e-05
-0.0030827885
-3.9030922e-05
0.0031106762
-3.9041656e-05
0.00041739717
0.00033718877
-0.011917127
-0.00039636233
0.012137929
-0.00057846912
0.00072530056
-0.0117989
0.0004157498
-0.00038177506
0.012009685
-0.00096936728
0.00098275399
-0.011568329
0.00029498532
-0.00016186956
0.01175935
-0.0013061863
0.0010464794
-0.011495225
1.9257992e-06
0.0001585948
0.011679196
-0.0013902076
0.00087062859
-0.011679881
-0.00029204455
0.00037983396
0.011880439
-0.0011582176
0.00057418423
-0.011885877
-0.00041413635
0.00039534446
0.012103246
-0.00077204486
7.1133238e-05
-0.0120293
0.012250787
-0.00040269869
-0.00033704514
6.3866207e-05
7.1202453e-05
6.5771742e-05
5.645669e-05
6.0584515e-05
7.384852e-05
5.5721032e-05
8.7562421e-06
-0.0034714995
-2.4724842e-05
8.3048291e-06
0.0035015174
-2.2368947e-05
3.3101104e-05
3.3159272e-05
-0.0032058713
-5.1840989e-05
0.003243304
-5.1893739e-05
0.00056008533
0.00045192325
-0.012408019
-0.00054046047
0.012730617
-0.00079405141
0.0010069612
-0.012286674
0.00057711439
-0.00053912684
0.012644689
-0.0014029318
0.0014061137
-0.012033931
0.00042221586
-0.0002347082
0.012448074
-0.0020078051
0.0015108619
-0.011953986
2.7232117e-06
0.00022999443
0.012383561
-0.0021731571
0.0012295215
-0.012154859
-0.00041871216
0.00053692862
0.012538192
-0.001731002
0.00078313397
-0.012378429
-0.00057580086
0.00053976926
0.012718073
-0.0010864796
9.4819542e-05
-0.012518403
0.012825815
-0.00054072399
-0.00045219277
8.4625058e-05
9.4586622e-05
8.5492962e-05
7.5078422e-05
7.8344983e-05
9.5761894e-05
7.7119513e-05
1.148424e-05
-0.0036098344
-3.2798089e-05
1.1054491e-05
0.0036498924
-2.9838951e-05
3.8371138e-05
3.8377579e-05
-0.0033632255
-6.0363196e-05
0.0034072241
-6.0493966e-05
0.00065508389
0.00052654079
-0.01310102
-0.00063861305
0.013507357
-0.00094975585
0.0012217074
-0.013108312
0.00069694137
-0.00067407374
0.013679045
-0.001815912
0.0017894766
-0.013025007
0.00055156857
-0.00031731235
0.013669757
-0.0026690518
0.0019505334
-0.012975532
7.9504089e-06
0.00030472335
0.013604752
-0.0028929917
0.0015311069
-0.013070221
-0.00054577116
0.00067297934
0.013706531
-0.0022951821
0.00093034993
-0.013124392
-0.00069757346
0.00063907907
0.013597966
-0.0013458616
0.00011135349
-0.01317355
0.013542287
-0.00063261147
-0.0005277725
9.7997466e-05
0.00010902761
9.6360394e-05
8.6952532e-05
8.8067818e-05
0.00010962312
9.192532e-05
1.3260414e-05
-0.0037849132
-3.8072764e-05
1.2892244e-05
0.0038316449
-3.4916599e-05
3.6734162e-05
3.6666569e-05
-0.0035361639
-5.7885397e-05
0.0035786824
-5.8110984e-05
0.00061947386
0.00049480469
-0.013929814
-0.00060840928
0.014338531
-0.00091527987
0.0011869977
-0.014282843
0.00068729395
-0.00067694044
0.014790602
-0.0017058796
0.0017146734
-0.014213499
0.00054660088
-0.00031952975
0.014523878
-0.002252763
0.001855613
-0.014100579
3.8542746e-05
0.00025227228
0.014351127
-0.0023975851
0.0014956423
-0.014309192
-0.0005035105
0.00065864781
0.014722851
-0.002065111
0.00089059005
-0.014115655
-0.00068515572
0.0006107319
0.014615305
-0.0013165973
0.00010815027
-0.013917722
0.014267451
-0.00059775259
-0.00049769591
9.2706914e-05
0.00010198103
8.7678392e-05
8.192567e-05
8.0090351e-05
0.00010380457
8.8657722e-05
1.2695967e-05
-0.0039755897
-3.6460366e-05
1.2483693e-05
0.0040205468
-3.3800686e-05
2.67523e-05
2.6593861e-05
-0.0036886849
-4.1984459e-05
0.0037195381
-4.2303642e-05
0.00043221131
0.00034417322
-0.014698234
-0.00042926237
0.014974643
-0.00062421073
0.00077679796
-0.015092091
0.00046892586
-0.00042664623
0.015148852
-0.00087644108
0.00098714572
-0.014551819
0.00033005115
-0.0002099945
0.014329324
-0.00088518198
0.0010331094
-0.014318807
7.8421854e-05
6.6418528e-05
0.014049533
-0.00090914697
0.00093227941
-0.014868609
-0.00022023055
0.00036021315
0.014752647
-0.00095683766
0.00061786291
-0.015010672
-0.00044218161
0.00042552543
0.015239342
-0.00083059403
8.0437335e-05
-0.014574368
0.014813667
-0.00041682507
-0.00034774864
6.5095968e-05
7.1062855e-05
5.8243467e-05
5.6861308e-05
5.3508765e-05
7.6160708e-05
6.3153515e-05
9.3599192e-06
-0.004143365
-2.6486689e-05
9.2922636e-06
0.0041762625
-2.5156642e-05
1.2731184e-05
1.251085e-05
-0.0037870858
-1.9694076e-05
0.0038015268
-2.0055044e-05
0.00018924969
0.00015405267
-0.015142163
-0.00018343365
0.015197908
-0.00021608647
0.00023408653
-0.014992558
0.00016205377
-0.00011305286
0.014692562
1.6544176e-05
0.00010620359
-0.013943123
8.0113111e-05
-8.148902e-05
0.013482328
0.00035568204
8.7543467e-05
-0.013629052
0.00010431854
-0.00011570273
0.013144923
0.00040767938
0.00020744967
-0.01444679
8.3444943e-05
-2.1000833e-06
0.014038606
0.00011905421
0.00024329979
-0.015283712
-9.9137925e-05
0.00016194449
0.015164658
-0.000187525
4.1655734e-05
-0.014985162
0.01508416
-0.00018434335
-0.00015377706
2.8163616e-05
3.2027039e-05
2.2695282e-05
2.3562033e-05