/*--------------------------------*- C++ -*----------------------------------*\
  =========                 |
  \\      /  F ield         | OpenFOAM: The Open Source CFD Toolbox
   \\    /   O peration     | Website:  https://openfoam.org
    \\  /    A nd           | Version:  8
     \\/     M anipulation  |
\*---------------------------------------------------------------------------*/
FoamFile
{
    version     2.0;
    format      ascii;
    class       volVectorField;
    location    "150";
    object      U;
}
// * * * * * * * * * * * * * * * * * * * * * * * * * * * * * * * * * * * * * //

dimensions      [0 1 -1 0 0 0 0];

internalField   nonuniform List<vector> 
72028
(
(0.00081534495 1.0011337 0.0025596862)
(-2.5674487e-05 0.99998688 -2.8887289e-05)
(1.6315179e-05 1.0024911 3.4437345e-05)
(-3.648869e-05 1.0007917 -0.00019850849)
(-3.9144448e-05 1.0043382 -0.00013565741)
(-2.5876874e-05 1.0032171 -0.00042817286)
(-0.00011268076 1.0087074 -0.00026964235)
(-2.2011225e-05 1.0079019 -0.00076907886)
(-0.00022360044 1.0166498 -0.00045984446)
(-1.5014453e-05 1.0160029 -0.0012988737)
(-0.00039048083 1.0299352 -0.00074289391)
(-2.8734627e-06 1.0293471 -0.002102794)
(-0.00064273573 1.0510869 -0.0011432282)
(1.6657144e-05 1.0504889 -0.003264873)
(-0.0010018642 1.083016 -0.0016505998)
(4.1720031e-05 1.0823695 -0.0047848283)
(-0.0014471702 1.1278405 -0.0021759889)
(6.2568755e-05 1.1271761 -0.0064275426)
(-0.0018756997 1.1843418 -0.0025002516)
(5.0053427e-05 1.1837581 -0.0075664226)
(-0.0021119733 1.2449429 -0.0023345765)
(-2.6958867e-05 1.2445538 -0.0072994283)
(-0.0020147761 1.2962975 -0.0016209668)
(-0.00015419392 1.2960428 -0.0052999004)
(-0.0016494846 1.3275631 -0.0007168303)
(-0.00026136859 1.3271768 -0.002531191)
(-0.0011993618 1.3379596 2.3337632e-06)
(-0.00030957733 1.3373502 -0.00026110558)
(-0.00080499156 1.3338517 0.00042084873)
(-0.00031057623 1.333054 0.0010407034)
(-0.00052376603 1.3223378 0.00060309215)
(-0.00029701204 1.3214798 0.0015499122)
(-0.00028873439 1.3086101 0.00062254816)
(-0.00029347144 1.3077719 0.0016763136)
(-0.00010885267 1.2954649 0.00056288641)
(-0.0002869186 1.2945119 0.0015846111)
(-1.2185442e-05 1.2838742 0.00048248758)
(-0.00028682798 1.2826453 0.0013661801)
(-1.2223133e-05 1.2737541 0.00041329198)
(-0.00031166383 1.272031 0.0011990153)
(-9.9960949e-05 1.2642856 0.00041883011)
(-0.00039928681 1.2619333 0.00116574)
(-0.00028613591 1.2542911 0.00049290291)
(-0.00055117059 1.2512144 0.0013315742)
(-0.00014703592 1.000093 0.00067768137)
(-4.8606284e-05 1.0000114 -8.7795339e-05)
(-3.5918426e-05 1.0000143 -0.0001699728)
(4.4205133e-06 1.0000142 -0.00019473442)
(4.1934206e-05 1.0000128 -0.00016434518)
(3.2842204e-05 1.0000169 -9.3951459e-05)
(-0.00026890906 0.99987626 -0.00013667205)
(-0.00019198472 1.0012619 -0.00024299792)
(-0.00067976397 1.0009741 -0.0016761375)
(-0.00040169604 1.0008425 -0.0023757609)
(0.0001256375 1.0008038 -0.0024826572)
(0.00056924739 1.0008907 -0.002088899)
(0.00049952828 1.0008146 -0.00096799922)
(0.00013125026 1.0007758 -0.00025280729)
(-0.00046798319 1.0036939 -0.00064831842)
(-0.0014415329 1.0033407 -0.0035796704)
(-0.00083598707 1.0029249 -0.005031957)
(0.00026593328 1.0028103 -0.0052344398)
(0.0011926414 1.0031044 -0.004422012)
(0.0011472932 1.0031354 -0.0020563315)
(0.00024955825 1.0034739 -0.00041848221)
(-0.00087477338 1.0084098 -0.0012316082)
(-0.0025762194 1.0078573 -0.0064111336)
(-0.0014897788 1.0069286 -0.0090253107)
(0.00047804356 1.0066738 -0.009393596)
(0.0021433654 1.0073447 -0.0079179064)
(0.0020449884 1.0076472 -0.0036752656)
(0.00046930684 1.0083459 -0.00069108186)
(-0.0014986426 1.0166005 -0.0021060495)
(-0.0043389128 1.0157001 -0.010796049)
(-0.002511556 1.0139689 -0.015257328)
(0.000817092 1.0134892 -0.015906117)
(0.0036342991 1.0147532 -0.01335468)
(0.0034155024 1.0154752 -0.0061837086)
(0.00081808526 1.0166531 -0.0011252306)
(-0.0024409644 1.0301069 -0.0034138701)
(-0.0070366126 1.0287863 -0.017471729)
(-0.0040903743 1.0259332 -0.024846314)
(0.0013474473 1.0251344 -0.025965866)
(0.0059296405 1.0272355 -0.021680092)
(0.0054792391 1.0284479 -0.0099917151)
(0.0013536048 1.0302695 -0.0017861956)
(-0.0037922587 1.0514432 -0.0052742304)
(-0.010940782 1.0498864 -0.027063418)
(-0.006410461 1.0457265 -0.038843526)
(0.0021310722 1.0445524 -0.040730347)
(0.0092733814 1.0476362 -0.033750069)
(0.0083828658 1.0491591 -0.015459097)
(0.0021280078 1.0517129 -0.0027219355)
(-0.0055331276 1.0834334 -0.0076699144)
(-0.016026894 1.0824446 -0.039440145)
(-0.0094963129 1.0773481 -0.057309788)
(0.0031732867 1.0759036 -0.060374958)
(0.013655043 1.0796961 -0.049531821)
(0.012005256 1.0807095 -0.022553872)
(0.0031260907 1.0837816 -0.0039118607)
(-0.0073645939 1.1279909 -0.010237477)
(-0.021440398 1.1294013 -0.052470654)
(-0.01287424 1.125009 -0.077333337)
(0.0042905544 1.1237561 -0.081979179)
(0.018334639 1.127025 -0.066458413)
(0.015583935 1.12558 -0.030196366)
(0.0041750634 1.1283324 -0.0051590151)
(-0.0085833312 1.183731 -0.012043132)
(-0.024910655 1.1901038 -0.0606483)
(-0.015074101 1.1895049 -0.089985714)
(0.0049576624 1.1894428 -0.095888557)
(0.021229205 1.1896907 -0.077267197)
(0.017458297 1.1830419 -0.03554539)
(0.004854101 1.1838774 -0.0059949859)
(-0.0082504886 1.2432763 -0.011774549)
(-0.023348644 1.2555926 -0.056182138)
(-0.014331421 1.263307 -0.082644218)
(0.0046468561 1.266278 -0.088959822)
(0.01975276 1.2591617 -0.071257918)
(0.015566343 1.2455197 -0.034574569)
(0.0045970534 1.2430643 -0.0058105605)
(-0.0060873177 1.2940068 -0.008879434)
(-0.016421323 1.309893 -0.037999141)
(-0.010596038 1.3269247 -0.056870774)
(0.0030633142 1.3323705 -0.062754934)
(0.013945737 1.3183379 -0.048572506)
(0.0096086537 1.2984987 -0.025674275)
(0.0032259746 1.2935002 -0.0044035373)
(-0.0031016082 1.3254586 -0.0046131454)
(-0.0076290027 1.3408603 -0.016293098)
(-0.0057507846 1.3581119 -0.024830955)
(0.0008410721 1.3614075 -0.028648658)
(0.0061879593 1.3506724 -0.021318183)
(0.0023552527 1.3301828 -0.013068612)
(0.0013748293 1.3249359 -0.0024234165)
(-0.0006013899 1.3364287 -0.00086114114)
(-0.00072133926 1.3479463 0.000251948)
(-0.0021974022 1.3551936 0.0014602863)
(-0.0012875512 1.3537007 0.0004715524)
(7.5633594e-05 1.3536548 4.1089125e-06)
(-0.002957532 1.3401832 -0.0024801439)
(-0.00010962695 1.3361177 -0.00074135984)
(0.00090841305 1.3327768 0.0015376226)
(0.0031566058 1.3379885 0.0097712486)
(-7.5499851e-05 1.3298622 0.018108727)
(-0.0029526511 1.3229869 0.019129135)
(-0.004169698 1.3362802 0.013369734)
(-0.0051656017 1.3354808 0.0040108364)
(-0.00091991387 1.3327337 0.00035966804)
(0.001537864 1.3215435 0.0026640309)
(0.0046586584 1.3178145 0.014633367)
(0.00065373819 1.2936174 0.025641934)
(-0.0042633327 1.2827941 0.02725376)
(-0.0065889089 1.3071255 0.020101245)
(-0.0051656284 1.3230926 0.0068919891)
(-0.0011585475 1.321693 0.00098366612)
(0.0016512681 1.3078778 0.0030368939)
(0.004784287 1.2922115 0.01661067)
(0.00064415377 1.2558601 0.02761991)
(-0.005251301 1.2431574 0.030534692)
(-0.0078123163 1.2739041 0.021799888)
(-0.004304008 1.3070462 0.007508673)
(-0.0010841706 1.3081419 0.0012717341)
(0.0014935268 1.2946086 0.0029395381)
(0.0042340735 1.265014 0.016716747)
(0.00027860208 1.221348 0.027516899)
(-0.0058669264 1.2082237 0.030353028)
(-0.0084794529 1.2416424 0.021195636)
(-0.0035873217 1.289046 0.0072405065)
(-0.00091554912 1.2949942 0.0013232007)
(0.0012557904 1.2826747 0.0026503668)
(0.0034402547 1.2387558 0.016106565)
(-0.00021704634 1.1918255 0.026421982)
(-0.0063241549 1.1790121 0.02852052)
(-0.0089023027 1.2127151 0.020164511)
(-0.0034270404 1.2698529 0.0069532209)
(-0.00078724187 1.2833794 0.0012170478)
(0.0010034641 1.2719209 0.0024505544)
(0.0026922668 1.214739 0.015558666)
(-0.00074320381 1.1673256 0.024757217)
(-0.006646079 1.1551416 0.026185476)
(-0.0091509076 1.1878375 0.018990749)
(-0.0037396888 1.2503842 0.0068223188)
(-0.00072804661 1.2733008 0.0010461063)
(0.00080671053 1.2615037 0.0024540109)
(0.0021611011 1.1933777 0.015418947)
(-0.0012505907 1.1470825 0.023155365)
(-0.0068293766 1.1356932 0.024056792)
(-0.0092897415 1.1666818 0.017835822)
(-0.0043441258 1.2314938 0.0068826376)
(-0.00075619988 1.2640213 0.00095483228)
(0.00074267969 1.2504954 0.0027426581)
(0.0017608856 1.1738916 0.015636088)
(-0.0016926253 1.1298742 0.022240253)
(-0.0069515863 1.1197799 0.022652996)
(-0.0095251507 1.1479207 0.017309051)
(-0.0050620943 1.213498 0.0072255655)
(-0.00096603075 1.2543106 0.0010631673)
(-6.9112498e-05 1.0000022 -7.1491887e-05)
(-0.00012668579 1.0000177 -0.00016467001)
(-0.0001337973 1.0000204 -0.00026794543)
(-7.8967071e-05 1.0000195 -0.00033813675)
(1.1754226e-05 1.0000157 -0.00035860582)
(9.6682521e-05 1.0000115 -0.00032379292)
(0.00013648164 1.0000083 -0.00024253586)
(0.00011084659 1.0000071 -0.0001345929)
(9.9458468e-05 0.99997725 -6.3203891e-05)
(-0.00054663425 1.0007326 -0.00054078586)
(-0.0016329914 1.0007912 -0.0021709649)
(-0.0016144253 1.0004591 -0.0033531085)
(-0.00086493959 1.0001963 -0.0041400389)
(0.00028003145 1.0001325 -0.004310499)
(0.0012895622 1.0003086 -0.0038181669)
(0.0017021965 1.0006311 -0.0028010585)
(0.0013461711 1.0009327 -0.0015583058)
(0.00027015741 1.0007215 -0.00025775156)
(-0.0012099039 1.0031396 -0.0011997295)
(-0.003402414 1.0027814 -0.0045407419)
(-0.0033918484 1.0016247 -0.0070386268)
(-0.0018249362 1.0006964 -0.0087410826)
(0.00059762551 1.0004719 -0.0091059375)
(0.0027201774 1.0010945 -0.0080397785)
(0.0035668807 1.002215 -0.005865015)
(0.0028574004 1.0032487 -0.0033055787)
(0.00061390953 1.0031961 -0.00056527086)
(-0.0021803623 1.007821 -0.0021659256)
(-0.0060687373 1.0066151 -0.0081217255)
(-0.0061121539 1.0039626 -0.012681413)
(-0.003303482 1.0018005 -0.015846223)
(0.0010940189 1.0012764 -0.01652676)
(0.0049281013 1.0027315 -0.014535038)
(0.0064171392 1.0053086 -0.010525278)
(0.005119119 1.0076872 -0.0059075153)
(0.0011089841 1.0079921 -0.0010153225)
(-0.0036676877 1.0159333 -0.0036490869)
(-0.010239178 1.0133986 -0.013719786)
(-0.010447825 1.0083513 -0.021674639)
(-0.0056938161 1.0041497 -0.027341414)
(0.0019069718 1.0031219 -0.028576813)
(0.0084899225 1.0059653 -0.024975139)
(0.010928848 1.0109138 -0.01787812)
(0.0086255039 1.0154198 -0.0099246634)
(0.0018642117 1.0162765 -0.0017010878)
(-0.0059070215 1.0293144 -0.0058873208)
(-0.016660109 1.0250359 -0.022332385)
(-0.017309968 1.0165199 -0.035899951)
(-0.0095625724 1.009204 -0.045931374)
(0.0032366923 1.0073849 -0.048168967)
(0.014213113 1.0123853 -0.041696065)
(0.017982602 1.0208701 -0.029341975)
(0.013962756 1.0283766 -0.016020307)
(0.0030053156 1.0298908 -0.0027297413)
(-0.0090948324 1.050509 -0.0090761719)
(-0.026027687 1.044516 -0.034888471)
(-0.02772946 1.0317049 -0.057482674)
(-0.015632244 1.020184 -0.075068345)
(0.0053434769 1.0172424 -0.079122091)
(0.023080868 1.0252418 -0.067537638)
(0.028495789 1.0383174 -0.046382126)
(0.021620562 1.0493594 -0.024745259)
(0.0046268958 1.0513409 -0.0041909125)
(-0.013178539 1.082395 -0.013163683)
(-0.03837123 1.0759842 -0.05144224)
(-0.042267222 1.0595372 -0.087629228)
(-0.024509326 1.0437905 -0.11775564)
(0.0084531477 1.039566 -0.12500786)
(0.035801811 1.0507857 -0.10462912)
(0.042772896 1.0681454 -0.069492723)
(0.031480327 1.0818587 -0.035949268)
(0.0066989275 1.0834149 -0.0060524275)
(-0.017482359 1.1270351 -0.017479799)
(-0.051771146 1.1238613 -0.0694868)
(-0.059213825 1.1082757 -0.12324462)
(-0.035461444 1.0930231 -0.17084207)
(0.012426569 1.0890555 -0.18307434)
(0.05102354 1.0994854 -0.14980152)
(0.058940651 1.1166192 -0.095754744)
(0.041846749 1.1288805 -0.047686107)
(0.0088640479 1.1279479 -0.0079983598)
(-0.020391247 1.1831936 -0.02041451)
(-0.060623882 1.1891923 -0.081653928)
(-0.07270631 1.1889414 -0.15090286)
(-0.047926484 1.192962 -0.22462991)
(0.016565414 1.1918226 -0.24539514)
(0.066055942 1.191404 -0.19069148)
(0.070247 1.1878444 -0.11423567)
(0.048434398 1.1898482 -0.055092989)
(0.010274122 1.1834468 -0.0092842831)
(-0.019741762 1.2435038 -0.019798295)
(-0.056814634 1.2637642 -0.076802147)
(-0.073775408 1.2951374 -0.15024548)
(-0.047096843 1.2898052 -0.21233025)
(0.011626489 1.2806422 -0.22755835)
(0.06355914 1.2980228 -0.1882085)
(0.068611263 1.2785161 -0.11068997)
(0.045372035 1.2557867 -0.051489202)
(0.0098303461 1.242577 -0.0089257276)
(-0.014765752 1.294957 -0.014860422)
(-0.040219299 1.3284715 -0.054241582)
(-0.048643847 1.3495509 -0.094150761)
(-0.028816389 1.2954583 -0.10976647)
(-0.00083676771 1.2758984 -0.11296599)
(0.031450061 1.3246814 -0.10867351)
(0.048141617 1.3497725 -0.077950501)
(0.031458563 1.3103414 -0.035425922)
(0.0071068314 1.2930165 -0.0066116391)
(-0.0076239668 1.3265877 -0.0077398718)
(-0.018955757 1.3595597 -0.024498429)
(-0.015118511 1.32282 -0.021129918)
(-0.0079440118 1.2274676 0.0040867658)
(-0.012076736 1.2012615 0.0086508987)
(-0.00501298 1.2712686 -0.013560899)
(0.015886417 1.3586293 -0.028584566)
(0.013973526 1.3413766 -0.015412749)
(0.0032463835 1.3245353 -0.0033698278)
(-0.0014458048 1.3372925 -0.0015466215)
(-0.00072168674 1.3517916 0.0020780651)
(0.0094236347 1.2575056 0.033792699)
(0.003838885 1.1447244 0.069285993)
(-0.017781037 1.1164772 0.074955135)
(-0.027549577 1.1938365 0.047929792)
(-0.010570137 1.3173589 0.010040441)
(0.00038652279 1.3486593 -0.00012303717)
(-3.9160704e-05 1.3358103 -0.00060295896)
(0.0024493704 1.333206 0.0024110071)
(0.010894106 1.3174539 0.019566335)
(0.020221747 1.1916587 0.05994645)
(0.0074508196 1.0792006 0.091819107)
(-0.019322184 1.0526429 0.096240051)
(-0.035931899 1.1267076 0.07192691)
(-0.026436035 1.26003 0.033095766)
(-0.0079136577 1.3377424 0.0089780666)
(-0.001955845 1.3324837 0.0011068187)
(0.0042179577 1.3215763 0.0042960251)
(0.016194553 1.2731644 0.028306361)
(0.022066977 1.1387672 0.066212372)
(0.0071224228 1.0351587 0.09159602)
(-0.018913336 1.0114781 0.094305838)
(-0.036602563 1.0781406 0.074597944)
(-0.032431724 1.2066872 0.041578922)
(-0.012577911 1.3147751 0.013466278)
(-0.0026106391 1.3214646 0.0019063106)
(0.0045809677 1.3075413 0.004790705)
(0.017711219 1.2308016 0.031539977)
(0.019984161 1.0999082 0.063062512)
(0.0052846646 1.0071781 0.082236045)
(-0.017725088 0.98642754 0.08363053)
(-0.034114148 1.0452372 0.067993326)
(-0.032830932 1.1633776 0.041403948)
(-0.014704404 1.2852964 0.014781276)
(-0.0025077756 1.3079014 0.0021025491)
(0.0041742537 1.2935209 0.0045676873)
(0.016846732 1.1946874 0.031287218)
(0.016661053 1.0720828 0.056451482)
(0.0031666349 0.98971771 0.07075782)
(-0.016369826 0.97161507 0.071216223)
(-0.030676868 1.0232844 0.058675823)
(-0.030833887 1.1299707 0.037518964)
(-0.015417486 1.2545536 0.01442893)
(-0.0021782815 1.2946761 0.001953551)
(0.0035774001 1.2798046 0.0042262182)
(0.014935575 1.1652844 0.029426737)
(0.013362716 1.0521421 0.04938129)
(0.001309194 0.9788536 0.060094751)
(-0.015113389 0.96296715 0.059862517)
(-0.027307129 1.0085417 0.049645863)
(-0.028170041 1.1046485 0.032744182)
(-0.015428692 1.2257921 0.013383022)
(-0.0018332818 1.282914 0.0016355506)
(0.003118537 1.2658117 0.0041281904)
(0.012871026 1.1416203 0.027148467)
(0.010540582 1.0375613 0.043118307)
(-0.00014630654 0.97196579 0.051168322)
(-0.014018721 0.95790663 0.050445105)
(-0.024398614 0.99839237 0.041995161)
(-0.025632814 1.085326 0.028310054)
(-0.015354021 1.2004236 0.012423994)
(-0.0016479876 1.2724627 0.0013307869)
(0.0029489837 1.2510089 0.0044169144)
(0.011166949 1.1221762 0.025200935)
(0.0083233106 1.0261896 0.038113699)
(-0.001231453 0.96736062 0.044104313)
(-0.013085528 0.95491925 0.043032565)
(-0.022045933 0.99090847 0.035952039)
(-0.023571893 1.0698149 0.024729408)
(-0.015200463 1.1784535 0.011535912)
(-0.0017197152 1.2624074 0.0011925346)
(0.0031697048 1.2356267 0.0051516798)
(0.010123293 1.1048678 0.024111736)
(0.0067368044 1.0167488 0.034459047)
(-0.0019997412 0.96433226 0.038771963)
(-0.012327965 0.95339822 0.037429266)
(-0.020266522 0.98517042 0.031461111)
(-0.022187963 1.0563027 0.022267629)
(-0.01541496 1.1586527 0.011143188)
(-0.0021030783 1.2515664 0.0012658983)
(0.00065580008 1.0000864 -0.00014207668)
(-0.00016537866 1.0000177 -0.00012607261)
(-0.00023939369 1.0000227 -0.00023886613)
(-0.00022512507 1.0000224 -0.00034205522)
(-0.00012737171 1.0000176 -0.00041359755)
(1.9576729e-05 1.0000107 -0.0004344212)
(0.00015859099 1.0000052 -0.0003987957)
(0.00023591276 1.0000025 -0.00031653632)
(0.00022567476 1.0000028 -0.00020870746)
(0.00012732595 1.0000049 -9.6331146e-05)
(-0.001219759 1.0006708 0.0011415249)
(-0.0002454919 1.0012463 -0.00018618158)
(-0.00217727 1.000791 -0.0016271276)
(-0.0029438249 1.0002709 -0.0029378564)
(-0.0026543753 0.99968314 -0.0041248551)
(-0.0013687069 0.99924143 -0.0049115656)
(0.00044991073 0.99913985 -0.0050826475)
(0.0020855065 0.99942803 -0.0045882218)
(0.0029117966 0.99997234 -0.0035700064)
(0.0026612802 1.0005526 -0.0022869009)
(0.0015045032 1.0009767 -0.0010348861)
(4.0096776e-05 1.0019885 8.2583287e-05)
(-0.00065685651 1.0036745 -0.00045669611)
(-0.0045518467 1.00278 -0.0033916965)
(-0.006188117 1.0009752 -0.0061773076)
(-0.0056370629 0.99887643 -0.0087601277)
(-0.0029263004 0.99727585 -0.010502808)
(0.00096832115 0.99690575 -0.010883882)
(0.0044541437 0.99795373 -0.0097837936)
(0.0061598107 0.99991071 -0.0075469443)
(0.0055782993 1.0019498 -0.0047918779)
(0.0032038483 1.0033688 -0.0022009047)
(0.00017449302 1.0040656 -5.3986397e-05)
(-0.0012440577 1.0083904 -0.00085864299)
(-0.0081369581 1.0066128 -0.0060535376)
(-0.01117319 1.0024763 -0.011158011)
(-0.010321669 0.99753708 -0.01603977)
(-0.0054123273 0.99367864 -0.019433221)
(0.0018078636 0.99277632 -0.020184342)
(0.0082219955 0.99532231 -0.018022983)
(0.011215086 0.99998494 -0.013724717)
(0.010036193 1.0047145 -0.0086152934)
(0.0057327914 1.0079401 -0.0039408279)
(0.00030865639 1.0086393 -0.00017928729)
(-0.0021216063 1.016579 -0.0014783741)
(-0.013737944 1.0133951 -0.010219026)
(-0.019188912 1.0055064 -0.019169147)
(-0.018095903 0.99575438 -0.028119599)
(-0.009631656 0.98788026 -0.034597437)
(0.0032508145 0.98600583 -0.036060321)
(0.01457284 0.99126321 -0.031876359)
(0.019491484 1.0006283 -0.023820437)
(0.017105625 1.0098016 -0.014671361)
(0.0096446116 1.0158767 -0.0066307325)
(0.00049851505 1.0168008 -0.00035910981)
(-0.0034313966 1.0300834 -0.0024172426)
(-0.022351432 1.0250326 -0.016634648)
(-0.032032838 1.0116569 -0.032007908)
(-0.031147562 0.99423365 -0.048393329)
(-0.016966692 0.97945148 -0.060956709)
(0.0057912277 0.97583628 -0.063879694)
(0.025469885 0.98588081 -0.055596853)
(0.033085732 1.0030629 -0.040378682)
(0.028195126 1.0190203 -0.024162797)
(0.015583362 1.029108 -0.010714576)
(0.000780942 1.0303442 -0.00062467059)
(-0.0052936496 1.0514156 -0.0037634081)
(-0.034909121 1.0445011 -0.026002438)
(-0.05187943 1.0242223 -0.051857111)
(-0.052731022 0.9956409 -0.081930113)
(-0.02975535 0.96959174 -0.10689062)
(0.010290379 0.96295057 -0.11296204)
(0.044061265 0.98111031 -0.096018458)
(0.054849277 1.0104287 -0.066859323)
(0.044808436 1.0355753 -0.038373936)
(0.024078971 1.0503931 -0.016559671)
(0.001176133 1.0517683 -0.0010028555)
(-0.007691646 1.0833992 -0.0055027531)
(-0.051463487 1.0759528 -0.038360868)
(-0.080335749 1.0495102 -0.080340567)
(-0.08680159 1.0074563 -0.13507962)
(-0.051429134 0.96550413 -0.18513294)
(0.018134713 0.95484317 -0.19820558)
(0.074510187 0.9840934 -0.16271389)
(0.087700386 1.0299501 -0.10682624)
(0.067580906 1.0646671 -0.057834097)
(0.034977565 1.0830972 -0.024063586)
(0.0016691997 1.083869 -0.0015000818)
(-0.010261085 1.12794 -0.0073373841)
(-0.069508218 1.1238093 -0.051800795)
(-0.11524542 1.0977969 -0.11531913)
(-0.13977495 1.0557325 -0.21640038)
(-0.0930628 0.99816286 -0.32782073)
(0.03180458 0.97632725 -0.35551318)
(0.1292793 1.0284832 -0.27823024)
(0.13151068 1.0773573 -0.16011741)
(0.093865328 1.1133147 -0.080209213)
(0.046378814 1.1299649 -0.03191194)
(0.0021541042 1.1285212 -0.0020576887)
(-0.012067074 1.1836621 -0.0085672235)
(-0.081680129 1.1891077 -0.060744057)
(-0.1470216 1.1883475 -0.14725177)
(-0.18784859 1.1428206 -0.28692723)
(-0.11451704 1.0040885 -0.38815342)
(0.028664376 0.96108764 -0.41491928)
(0.15410133 1.0721624 -0.34891256)
(0.17881942 1.1829995 -0.21783601)
(0.11304062 1.1871552 -0.096369324)
(0.053554829 1.1901165 -0.036841108)
(0.0024210842 1.1842459 -0.00249108)
(-0.011798875 1.2431998 -0.0082548568)
(-0.076791826 1.263676 -0.05710153)
(-0.14504073 1.2966086 -0.14303079)
(-0.14735568 1.159438 -0.21498504)
(-0.089456818 0.96721435 -0.26219663)
(0.0048674365 0.9154579 -0.28268515)
(0.098620031 1.0537407 -0.253743)
(0.1506083 1.2507575 -0.19170491)
(0.11116971 1.2843389 -0.095102403)
(0.050076958 1.2546939 -0.034446358)
(0.0022014481 1.2436496 -0.0025624448)
(-0.0089077566 1.293946 -0.0061092277)
(-0.054261429 1.3284598 -0.040462526)
(-0.082791886 1.3174851 -0.075651616)
(-0.051519852 1.0974117 -0.054885656)
(-0.03048779 0.88520141 -0.024738825)
(-0.024497605 0.83394541 -0.026363264)
(0.00012586026 0.97782602 -0.056602816)
(0.052862121 1.2187828 -0.081890586)
(0.074996685 1.3527952 -0.065930164)
(0.034535104 1.3078706 -0.023886323)
(0.0014131484 1.2942253 -0.0021968847)
(-0.0046476151 1.325429 -0.0031286448)
(-0.024982061 1.3596184 -0.018409991)
(-0.0082097855 1.2576387 0.0033778492)
(0.02586286 0.99178425 0.071127645)
(0.013719545 0.76992657 0.1371214)
(-0.041371305 0.71618513 0.14674505)
(-0.067844535 0.86511034 0.088778357)
(-0.032806829 1.127851 0.017668149)
(0.021308079 1.3468343 -0.022508042)
(0.015037783 1.3382112 -0.010635275)
(0.000369273 1.3256715 -0.0016387539)
(-0.0009059666 1.3364286 -0.00062422191)
(0.00063299917 1.3518005 0.0013498078)
(0.036262352 1.1765505 0.050383325)
(0.057540894 0.90860423 0.12153872)
(0.026717105 0.70694665 0.17848969)
(-0.041558228 0.66049465 0.18507648)
(-0.087463763 0.79177541 0.13641557)
(-0.074446473 1.0405276 0.067143883)
(-0.021323621 1.2922908 0.011597604)
(7.6720033e-05 1.3459517 -0.00029645024)
(-0.00050394003 1.3367601 -0.0011399124)
(0.0014776397 1.3328061 0.00090127641)
(0.016874746 1.317336 0.014757892)
(0.052906038 1.1090943 0.068120417)
(0.061110294 0.86488078 0.12615321)
(0.025235176 0.69498532 0.16558353)
(-0.036758853 0.65725934 0.16814596)
(-0.08326414 0.7652622 0.1333684)
(-0.084502938 0.98172893 0.079797771)
(-0.044221433 1.2291733 0.029263896)
(-0.0086274078 1.3374482 0.005577845)
(-0.0010050143 1.3332317 -0.00079562473)
(0.0025835679 1.3215822 0.0015508839)
(0.024413649 1.2729697 0.021698159)
(0.053807467 1.0614238 0.069310215)
(0.053709515 0.84811541 0.1129224)
(0.019832974 0.70764482 0.13887856)
(-0.03148971 0.67719803 0.13883546)
(-0.072037078 0.76505692 0.11414252)
(-0.07965797 0.94815172 0.074942885)
(-0.051235753 1.1748651 0.034051765)
(-0.013098861 1.3186575 0.0079282104)
(-0.0011506837 1.3220701 -0.00051609101)
(0.0029300259 1.3079163 0.0016897251)
(0.026650378 1.2305781 0.024520456)
(0.048129905 1.0298779 0.063508748)
(0.043776109 0.84568204 0.095598371)
(0.01430877 0.72881256 0.11264452)
(-0.026920887 0.70387282 0.11115279)
(-0.060397827 0.77619598 0.09300157)
(-0.069910853 0.93086847 0.064227316)
(-0.050174225 1.1330357 0.032450621)
(-0.01507376 1.2939155 0.0084710684)
(-0.0010371557 1.3084553 -0.00030264954)
(0.0027953392 1.2946381 0.0015755325)
(0.02561776 1.1944629 0.024647799)
(0.040700695 1.0094442 0.055753688)
(0.034538259 0.84982651 0.079426971)
(0.0097198397 0.75113509 0.090739514)
(-0.023209649 0.73029557 0.088486336)
(-0.050356825 0.79093004 0.074567588)
(-0.059740386 0.92290215 0.052959508)
(-0.045879805 1.1020103 0.028459419)
(-0.015423822 1.2669148 0.0080552881)
(-0.00084982546 1.2952992 -0.00016902376)
(0.0024615304 1.282691 0.001417532)
(0.023186777 1.1650702 0.023480512)
(0.033649221 0.996118 0.04828237)
(0.026936877 0.85645003 0.065952028)
(0.0062012033 0.77171687 0.073521558)
(-0.020254358 0.75396626 0.070879411)
(-0.042259035 0.8057416 0.059799391)
(-0.050798459 0.91991238 0.043123329)
(-0.040861675 1.0790998 0.024063229)
(-0.01518834 1.2404597 0.0073101755)
(-0.00068049043 1.2837371 -8.7593873e-05)
(0.0021878625 1.2719144 0.0013195291)
(0.020496167 1.1414213 0.02196423)
(0.027744273 0.98707363 0.041928779)
(0.021015929 0.86349111 0.055266639)
(0.0036062581 0.78974288 0.06030083)
(-0.017903365 0.77440349 0.057473881)
(-0.035901698 0.81924246 0.048389589)
(-0.043500004 0.9192894 0.03520256)
(-0.036261026 1.0618804 0.020163092)
(-0.014810194 1.2160624 0.0064810173)
(-0.00054644707 1.2738108 -5.1962876e-05)
(0.0020642643 1.2614566 0.0013850646)
(0.018241135 1.1219922 0.020674297)
(0.023122531 0.98037908 0.036869135)
(0.016516408 0.87032124 0.046950882)
(0.0017235855 0.80548728 0.05018375)
(-0.016018748 0.79206565 0.04727973)
(-0.030943806 0.8313443 0.039674046)
(-0.037739219 0.91973962 0.029060147)
(-0.032564094 1.0481992 0.017076102)
(-0.014805388 1.1943111 0.0059391591)
(-0.00049153337 1.264845 -3.1378783e-05)
(0.0021643884 1.2503934 0.0017020238)
(0.016867731 1.1047187 0.020012308)
(0.019707049 0.97524795 0.03306129)
(0.013124006 0.87687526 0.040536595)
(0.00032606484 0.81926008 0.042366852)
(-0.014523352 0.80735694 0.039417832)
(-0.027088612 0.8421987 0.032984373)
(-0.033316966 0.92091452 0.024423457)
(-0.02994036 1.0365084 0.01490653)
(-0.015150392 1.1744567 0.0056638716)
(-0.00060151846 1.2556725 -7.5928753e-05)
(-8.9335577e-05 1.0000112 -4.847804e-05)
(-0.00026873789 1.0000204 -0.00013304146)
(-0.00034262117 1.0000224 -0.00022455925)
(-0.00031000861 1.0000175 -0.00030946769)
(-0.00017250826 1.000009 -0.00036839995)
(2.6830141e-05 0.9999995 -0.00038572132)
(0.00021607675 0.99999311 -0.00035631425)
(0.0003281216 0.9999916 -0.00028864031)
(0.00033020754 0.99999466 -0.00020025123)
(0.00023133197 0.99999946 -0.00010935175)
(-8.3073246e-05 0.99999868 -5.3614733e-05)
(-0.001681979 1.0009702 -0.00067297517)
(-0.0033591583 1.0004583 -0.0016068151)
(-0.0041309896 0.99968389 -0.0026470242)
(-0.0036021793 0.99883495 -0.0035948297)
(-0.0018321255 0.99820318 -0.0042273772)
(0.00060643067 0.99805857 -0.0043656277)
(0.0028148179 0.99846944 -0.0039674632)
(0.004009898 0.99924906 -0.0031514057)
(0.003874196 1.0000939 -0.0021320741)
(0.0025744729 1.0007526 -0.0011170461)
(0.00071974196 1.0009747 -0.00037040629)
(-0.00358964 1.003334 -0.001429315)
(-0.007048854 1.0016222 -0.0033778042)
(-0.0087710164 0.99887673 -0.0056229384)
(-0.0077423724 0.99579065 -0.0077281669)
(-0.0039680726 0.99346195 -0.0091603802)
(0.0013209164 0.99292647 -0.0094758021)
(0.0060862037 0.99444647 -0.0085689846)
(0.008577526 0.99730134 -0.0067371416)
(0.0081805088 1.0003359 -0.0045009937)
(0.0053915518 1.0026287 -0.0023326268)
(0.0017579753 1.0033185 -0.00076108117)
(-0.0064245283 1.0078495 -0.0025583635)
(-0.012695021 1.0039604 -0.0060912143)
(-0.016054993 0.99753815 -0.010300297)
(-0.014449887 0.99006411 -0.01442844)
(-0.0075040049 0.98426148 -0.017335334)
(0.0025197831 0.98290969 -0.017985307)
(0.01146917 0.9867316 -0.016124619)
(0.015877108 0.99375404 -0.012462916)
(0.014850162 1.0009765 -0.0081685979)
(0.0096692017 1.0062577 -0.0041722713)
(0.0032206577 1.0078855 -0.0013556393)
(-0.010811669 1.0156912 -0.004313093)
(-0.021690625 1.0083494 -0.010417943)
(-0.028139563 0.99575606 -0.018065333)
(-0.026068149 0.98037527 -0.02603742)
(-0.013824832 0.96786992 -0.031958128)
(0.0046917315 0.9648901 -0.033316179)
(0.020984428 0.9732566 -0.029457782)
(0.028270371 0.98807166 -0.022176592)
(0.02569602 1.0025676 -0.014130598)
(0.01638453 1.0127119 -0.0070623373)
(0.0054526242 1.0158009 -0.0022895141)
(-0.017488863 1.0287779 -0.0069968954)
(-0.035918418 1.0165164 -0.017269597)
(-0.048418248 0.99423209 -0.031107034)
(-0.046866576 0.96495345 -0.04682617)
(-0.025686058 0.93945822 -0.0594191)
(0.0088287397 0.93317232 -0.062418978)
(0.038515591 0.95063022 -0.053997111)
(0.049783241 0.97989644 -0.039030831)
(0.043346214 1.0064844 -0.023836125)
(0.026775386 1.0238752 -0.011540677)
(0.0088220194 1.0288954 -0.003720299)
(-0.027085321 1.0498707 -0.010882655)
(-0.057508925 1.0316856 -0.02767669)
(-0.08195697 0.99561993 -0.052685489)
(-0.084709675 0.94283929 -0.084671553)
(-0.048723763 0.89174268 -0.11283657)
(0.016992287 0.87868284 -0.11982474)
(0.071731404 0.91468094 -0.10046609)
(0.087154778 0.97053049 -0.068301084)
(0.071244138 1.0159472 -0.039179178)
(0.042050133 1.0427691 -0.018131629)
(0.013634243 1.0497588 -0.0057847251)
(-0.039475326 1.0824117 -0.015950416)
(-0.087677169 1.0594743 -0.042210357)
(-0.13510563 1.007369 -0.08678074)
(-0.15570499 0.92020315 -0.15577446)
(-0.10289262 0.82179975 -0.23639509)
(0.036726341 0.7909734 -0.25715133)
(0.14312934 0.86973995 -0.19940863)
(0.15055541 0.96652258 -0.11782347)
(0.11262312 1.0379059 -0.0618936)
(0.062425212 1.0737639 -0.026922126)
(0.019826665 1.0814233 -0.0084775091)
(-0.052541301 1.1293378 -0.021350922)
(-0.12336199 1.1081238 -0.059192217)
(-0.21637361 1.0555168 -0.13998289)
(-0.27987466 0.90324277 -0.2770311)
(-0.16914066 0.66320363 -0.37970928)
(0.051957201 0.59501545 -0.40685677)
(0.23796604 0.77703678 -0.3397689)
(0.26620674 1.0017336 -0.20997538)
(0.16587299 1.0860778 -0.090841168)
(0.084969573 1.1218819 -0.036597769)
(0.02636965 1.1262395 -0.011368733)
(-0.060792587 1.1900057 -0.02481777)
(-0.15110586 1.1887049 -0.072896904)
(-0.28986432 1.1423908 -0.18362709)
(-0.31299808 0.82581883 -0.29671026)
(-0.1994331 0.4452892 -0.41647129)
(0.043260174 0.33901537 -0.46184954)
(0.24860926 0.62236817 -0.37661166)
(0.3098853 1.0114705 -0.25046809)
(0.22165061 1.1893349 -0.12329083)
(0.10001887 1.1890277 -0.042881286)
(0.030677968 1.1832728 -0.013314965)
(-0.056416855 1.2554877 -0.023274313)
(-0.1509721 1.2950217 -0.073137171)
(-0.22553367 1.1588011 -0.13152011)
(-0.2197534 0.75106319 -0.18349909)
(-0.17788703 0.45337706 -0.29763728)
(-0.018633507 0.28432708 -0.3741716)
(0.14914355 0.51574276 -0.26829525)
(0.20494993 0.97197525 -0.18003202)
(0.20139095 1.2759422 -0.11429767)
(0.094263215 1.2690061 -0.040691984)
(0.029198349 1.2449486 -0.012725211)
(-0.038257156 1.3098421 -0.016393954)
(-0.096504673 1.3493628 -0.044143084)
(-0.072017666 1.0967844 -0.025227395)
(-0.0093046031 0.66496763 0.038793639)
(-0.025416388 0.39295003 0.054658444)
(-0.061832945 0.24282669 0.064253709)
(-0.051386346 0.47684182 -0.0045034889)
(0.01032943 0.88875386 -0.03717765)