/*--------------------------------*- C++ -*----------------------------------*\
  =========                 |
  \\      /  F ield         | OpenFOAM: The Open Source CFD Toolbox
   \\    /   O peration     | Website:  https://openfoam.org
    \\  /    A nd           | Version:  8
     \\/     M anipulation  |
\*---------------------------------------------------------------------------*/
FoamFile
{
    version     2.0;
    format      ascii;
    class       volScalarField;
    location    "200";
    object      k;
}
// * * * * * * * * * * * * * * * * * * * * * * * * * * * * * * * * * * * * * //

dimensions      [0 2 -2 0 0 0 0];

internalField   nonuniform List<scalar> 
72028
(
0.019677402
0.019687245
0.017012398
0.017008029
0.014895566
0.014891076
0.013239153
0.013235794
0.011912023
0.011909746
0.010832823
0.010831742
0.0099502615
0.0099510417
0.0092340845
0.0092384564
0.0086665836
0.0086777374
0.0082273958
0.008249077
0.0078743684
0.0079066791
0.0075503566
0.0075856305
0.0072266311
0.007256593
0.0069128266
0.0069378381
0.0066229683
0.0066582489
0.0063647965
0.0064237658
0.0061593973
0.0063154852
0.0060401935
0.0063893982
0.0061179444
0.006765836
0.0065305775
0.0076209192
0.007545917
0.0091627011
0.0095295413
0.0115276
0.019679972
0.019658112
0.019652979
0.019652119
0.019653522
0.019662229
0.019687849
0.017005531
0.016712236
0.016702006
0.016698565
0.016705386
0.01699833
0.017005845
0.014892378
0.014670008
0.014665432
0.014662899
0.01466662
0.014890812
0.014891504
0.013237426
0.013058561
0.013055375
0.013052933
0.013056047
0.013236416
0.013236802
0.011911557
0.011764649
0.01176134
0.011758538
0.011762138
0.01191029
0.011911187
0.010833765
0.010712605
0.010708942
0.01070556
0.010709961
0.010831972
0.010833558
0.009953204
0.0098565046
0.0098539844
0.0098499766
0.0098545405
0.0099513112
0.0099530117
0.0092400279
0.0091730007
0.0091770042
0.0091727505
0.009174716
0.0092402918
0.0092395349
0.0086764141
0.0086523169
0.0086749417
0.0086727502
0.008665981
0.0086851554
0.0086749452
0.0082407552
0.008272936
0.0083107638
0.0082954136
0.0083147272
0.0082680983
0.0082372947
0.0078890945
0.0079488783
0.008314951
0.0085790264
0.0080644763
0.0079426351
0.0078829789
0.0075631464
0.0078408441
0.010571451
0.012341335
0.0087664588
0.007638943
0.0075554252
0.007234655
0.0085432481
0.018053688
0.023324061
0.012120806
0.0073452922
0.0072270499
0.0069173983
0.010885814
0.029973815
0.038324371
0.019174346
0.0072144507
0.0069085916
0.0066267108
0.015429337
0.043616893
0.053957143
0.029040333
0.0074409017
0.0066149353
0.0063850491
0.022076351
0.056627751
0.068341537
0.039980664
0.0084130881
0.0063518058
0.0062500119
0.030009356
0.067992866
0.079694022
0.050440317
0.010641605
0.006121353
0.0062751791
0.038209028
0.076966198
0.087468665
0.05965654
0.014622271
0.0059875202
0.0065989746
0.045848936
0.082972536
0.092114988
0.067096284
0.020051616
0.006005048
0.0074298077
0.052567526
0.08639062
0.094291053
0.07226833
0.02610804
0.0063214414
0.0089966992
0.057806696
0.087897717
0.094682439
0.0755313
0.031987814
0.0071698246
0.011421504
0.06204658
0.088470755
0.094027473
0.077913958
0.037300422
0.0088161195
0.019673067
0.019651946
0.019650734
0.019650689
0.019650698
0.019650696
0.019650839
0.019653449
0.019680893
0.017000627
0.016695863
0.016686801
0.016682977
0.016682312
0.016684387
0.016691068
0.016709767
0.017003008
0.014889788
0.014662304
0.014656411
0.014651777
0.014650735
0.014653727
0.014660101
0.014669354
0.014889846
0.013235181
0.01305327
0.013048434
0.013044096
0.013042983
0.013046023
0.013051503
0.013058225
0.013234841
0.011909673
0.011759391
0.011752781
0.0117471
0.011745644
0.011749604
0.011756569
0.011764535
0.011909122
0.010832587
0.010706877
0.010698535
0.010691481
0.010689748
0.010694541
0.010703043
0.010713177
0.010831557
0.0099536365
0.0098519903
0.0098474569
0.0098433238
0.0098433652
0.0098451235
0.0098497803
0.0098589835
0.0099511745
0.0092438529
0.0091761565
0.0091968048
0.0092156324
0.0092350791
0.009205279
0.0091847439
0.0091796981
0.0092378949
0.0086861813
0.0086802798
0.0087597834
0.0088999719
0.0090149281
0.0087874342
0.0087278135
0.0086660482
0.0086734655
0.0082588114
0.0083458519
0.0095890561
0.024214468
0.033649649
0.01367268
0.0085211531
0.0082985532
0.0082358793
0.0079157825
0.0084124661
0.031870223
0.1203276
0.15147678
0.073597929
0.012187526
0.0079981794
0.007881559
0.0075950948
0.011392198
0.091853913
0.22428777
0.25761576
0.16593357
0.035074205
0.0079009064
0.0075539053
0.0072677835
0.022118362
0.14701518
0.27088128
0.29908335
0.21968682
0.071879726
0.0086356861
0.0072248432
0.0069599372
0.039266455
0.17761056
0.28347512
0.30685258
0.24044258
0.10509169
0.011387744
0.0069052153
0.0067054081
0.05886666
0.19049229
0.27892708
0.29795215
0.24342518
0.12675867
0.017253136
0.0066117786
0.0066015522
0.076124376
0.19277048
0.26537882
0.28065529
0.23652349
0.1384431
0.026064254
0.0063533948
0.0067801122
0.088464374
0.18867926
0.2478937
0.26011452
0.22453114
0.14319191
0.036293841
0.0061434332
0.0075346783
0.096132653
0.18109821
0.22947674
0.23931436
0.210496
0.14322955
0.04623985
0.006054448
0.0092397974
0.10014988
0.17193586
0.21173641
0.21974443
0.19618387
0.14032328
0.054882253
0.0061759143
0.012303519
0.10159312
0.16241523
0.19546338
0.20205198
0.18259267
0.1358383
0.061765919
0.0067356925
0.016556749
0.10153277
0.15341118
0.1809687
0.18640043
0.17028298
0.13091295
0.066642001
0.0080335647
0.021386963
0.10123321
0.14543205
0.16839003
0.17287054
0.15951898
0.12645123
0.070499832
0.010268949
0.019679961
0.019651943
0.01965066
0.019650627
0.019650609
0.019650606
0.019650616
0.019650644
0.019650722
0.019654031
0.019676098
0.017005485
0.016695838
0.016683611
0.016678296
0.016676143
0.016675755
0.016676951
0.016680366
0.016688695
0.016711967
0.017008125
0.01489232
0.01466231
0.014652878
0.014644538
0.014639956
0.014639021
0.014641783
0.014648184
0.014658071
0.014669119
0.014893799
0.013237372
0.013053282
0.013045354
0.013035551
0.013028608
0.013027081
0.013031484
0.013040302
0.013049871
0.013057601
0.013238042
0.011911513
0.011759399
0.011748876
0.011736002
0.011726497
0.011724282
0.011730478
0.011742288
0.011754727
0.011763965
0.011911584
0.010833718
0.010706875
0.010693788
0.010679022
0.010669352
0.010666222
0.010673185
0.010686027
0.010701069
0.010712602
0.010833075
0.0099531356
0.0098519881
0.0098450494
0.0098443167
0.0098684443
0.0098590745
0.0098518636
0.0098426896
0.0098490217
0.0098577324
0.0099511162
0.0092399273
0.0091761317
0.0092095153
0.0092242176
0.0096322113
0.0099459906
0.0093545762
0.0092410332
0.0091894562
0.0091760449
0.0092350149
0.0086762887
0.0086802375
0.0088194121
0.014310055
0.071240106
0.098197331
0.036462594
0.0094469488
0.008747714
0.008656938
0.0086660013
0.0082406415
0.0083448522
0.013833704
0.16919887
0.42837408
0.49459788
0.31095047
0.056286182
0.0087133105
0.0082796243
0.0082226073
0.0078891038
0.0084155598
0.07970243
0.40123143
0.66413044
0.72431778
0.5536052
0.23052597
0.016491801
0.0079796801
0.0078637926
0.0075633673
0.011420449
0.18217986
0.48346522
0.68613028
0.72999627
0.60244797
0.34006433
0.053110118
0.0077492946
0.007536067
0.0072350473
0.022249001
0.23699023
0.48518366
0.64498158
0.68011763
0.57933797
0.37016299
0.10295954
0.0080153832
0.0072115018
0.0069178975
0.039515336
0.25630241
0.45858359
0.58244736
0.60871397
0.53224276
0.36627479
0.13797309
0.0095023964
0.0068973309
0.0066270589
0.059193186
0.2570885
0.4188403
0.51181035
0.53077791
0.47478492
0.34643598
0.15666805
0.013078589
0.0066066721
0.0063864621
0.076434373
0.24794157
0.37577755
0.44539314
0.45918691
0.41806705
0.31954417
0.16443327
0.019099608
0.0063423875
0.0062532318
0.08872592
0.23389368
0.33509189
0.38807857
0.39836857
0.36749174
0.29116868
0.16516787
0.026924117
0.0061151525
0.0062828259
0.096349537
0.21810426
0.2990444
0.34030351
0.34821338
0.32437999
0.26424946
0.16160435
0.035426017
0.0059424857
0.0066155865
0.10033032
0.20240367
0.26805768
0.30093254
0.30718327
0.2882991
0.24001723
0.15571035
0.043542232
0.0058909175
0.0074620912
0.10173806
0.1877876
0.24180675
0.26848588
0.27352821
0.25826453
0.21885328
0.14882783
0.050663836
0.006069722
0.0090509687
0.10165063
0.17474211
0.21959257
0.24156761
0.24571109
0.23315886
0.20060499
0.14197964
0.056394521
0.0066761983
0.011498754
0.10131602
0.16342205
0.20108179
0.21961723
0.22312412
0.21251157
0.18512885
0.13585054
0.061037807
0.0080279488
0.019658112
0.019650734
0.019650627
0.01965059
0.019650571
0.019650566
0.019650577
0.019650604
0.019650652
0.019650985
0.019669571
0.016712235
0.016686795
0.016678291
0.016674582
0.016672837
0.016672497
0.016673517
0.0166761
0.01668157
0.016693076
0.017002038
0.014670006
0.014656403
0.014644529
0.014636343
0.014631608
0.014630621
0.014633517
0.014639984
0.014650016
0.014659561
0.014891826
0.013058551
0.01304842
0.01303554
0.013022664
0.013014161
0.013012321
0.013017657
0.013028701
0.013042326
0.0130503
0.013237364
0.011764623
0.011752752
0.011735985
0.011718032
0.011705518
0.011703007
0.011710586
0.011726694
0.011744869
0.011756054
0.011911677
0.010712553
0.010698488
0.010678996
0.010660227
0.010648869
0.010651257
0.01065095
0.010669785
0.010688948
0.010703218
0.010834587
0.0098564194
0.0098473889
0.0098442888
0.0098625438
0.0098161078
0.0098399807
0.0097796305
0.0098709124
0.0098432425
0.009848595
0.0099566145
0.0091728745
0.0091966462
0.0092243388
0.011799456
0.038839353
0.054258151
0.020962658
0.0095647979
0.0092388945
0.0091749
0.0092504229
0.0086522135
0.0087573197
0.014330016
0.20511167
0.54461314
0.6329745
0.3898991
0.063871188
0.009029755
0.0086852525
0.0087014614
0.0082730051
0.009598769
0.16968871
0.69089403
1.1341995
1.238991
0.94130741
0.41858294
0.034733523
0.0083376465
0.0082891197
0.0079491092
0.032143172
0.40200424
0.90096465
1.1831739
1.3188619
1.1205902
0.65726374
0.16554335
0.0090121483
0.0079592726
0.007846213
0.092649807
0.48410575
0.86294934
1.0798245
1.1842426
1.0196004
0.68191067
0.27693323
0.015880419
0.0076440991
0.0085708786
0.14795988
0.48564955
0.78415237
1.0077031
1.062895
0.90940866
0.64234158
0.31745202
0.03309309
0.0073270119
0.010965402
0.17840639
0.45890171
0.68506737
0.83139905
0.86374395
0.77034158
0.58088226
0.32286474
0.054242797
0.0071481179
0.01558632
0.19114426
0.41905773
0.58472258
0.67914926
0.69842692
0.64126348
0.51093739
0.31138199
0.074826318
0.0072364521
0.02230575
0.19328451
0.3759295
0.49771404
0.56114359
0.57341546
0.53637304
0.44488615
0.29166045
0.090823454
0.0078211114
0.030285965
0.18907328
0.33519971
0.42673413
0.47167495
0.48007888
0.45442869
0.38775198
0.269025
0.10128986
0.0091697874
0.038503235
0.1813952
0.29912118
0.36983138
0.40332004
0.40945823
0.39060348
0.34007125
0.24652759
0.10715541
0.011460867
0.046136322
0.17215663
0.26811164
0.3241931
0.35018586
0.35489814
0.34037566
0.30076565
0.22564943
0.10960117
0.014730569
0.052835422
0.16257817
0.24184505
0.28725911
0.30808077
0.31184161
0.30024193
0.26837869
0.20702154
0.10966202
0.018891077
0.058035742
0.15353016
0.21961829
0.25706224
0.27420985
0.27731129
0.26775362
0.24151881
0.19076442
0.10840172
0.023483762
0.06223924
0.14551617
0.2010979
0.23284327
0.24760176
0.2502984
0.24202026
0.21961548
0.17684533
0.10710191
0.027997411
0.019677315
0.019652979
0.019650689
0.019650609
0.019650571
0.019650548
0.019650542
0.019650554
0.019650582
0.019650631
0.019650779
0.019657058
0.017012291
0.016702013
0.016682976
0.016676136
0.016672834
0.01667114
0.016670799
0.01667181
0.016674226
0.016678823
0.016689956
0.016995838
0.0148955
0.014665441
0.014651775
0.014639945
0.014631603
0.0146266
0.014625542
0.014628628
0.014635357
0.014645323
0.014658996
0.014890508
0.013239116
0.013055379
0.013044087
0.013028591
0.013014154
0.01300467
0.013002604
0.013008558
0.013020909
0.013036504
0.013050492
0.013236068
0.011912008
0.011761329
0.011747078
0.011726472
0.011705509
0.011692986
0.011690134
0.01169778
0.011715415
0.011737142
0.011755077
0.011909862
0.010832817
0.01070891
0.010691444
0.010669318
0.010648853
0.010675163
0.010676289
0.010654475
0.010657439
0.010680092
0.01070089
0.010832239
0.009950254
0.0098539343
0.0098432743
0.0098683901
0.009816069
0.010473615
0.011061133
0.0099879356
0.009855563
0.0098428139
0.0098477889
0.0099545219
0.0092340682
0.0091769383
0.0092156121
0.0096328632
0.038839701
0.18372719
0.24101132
0.10131967
0.014134419
0.0091925209
0.0091886068
0.0092512299
0.0086665621
0.0086748881
0.0089005892
0.071377681
0.54474957
1.0375636
1.1538862
0.8233961
0.2674623
0.013000479
0.0087396966
0.0087112726
0.0082274154
0.0083102957
0.024358674
0.42923287
1.1347186
1.7083655
1.8321329
1.4628568
0.77862816
0.14664446
0.0088986899
0.0083154187
0.0078745176
0.0083200715
0.12107032
0.66518015
1.1837116
1.7616264
1.9218181
1.6414901
0.9742202
0.36843828
0.019502032
0.0080040766
0.007550666
0.010612275
0.22521349
0.68683195
1.0801569
1.5013301
1.721419
1.4662164
0.91774696
0.45479285
0.057050586
0.0077738866
0.0072270341
0.018199779
0.27160642
0.6453158
1.007766
1.3310516
1.4034906
1.1866214
0.82622979
0.46139137
0.10029841
0.0079310817
0.0069132601
0.030214674
0.28399508
0.58260137
0.83139047
1.005949
1.0445675
0.93206634
0.71437067
0.43911298
0.13141642
0.0090381929
0.0066233922
0.043893458
0.27928798
0.51188891
0.67913108
0.77637283
0.79633199
0.73718114
0.60447172
0.40345928
0.14921918
0.011660935
0.0063655353
0.056895774
0.265629
0.44543859
0.56112925
0.62017602
0.6314735
0.5972529
0.51137669
0.36383009
0.15727304
0.015969291
0.0061609122
0.068235809
0.24806537
0.38810575
0.47166416
0.51090936
0.51804953
0.49605077
0.43660329
0.32579663
0.15886303
0.021863765
0.0060439408
0.077164546
0.22959356
0.34031891
0.40331119
0.43148553
0.43645857
0.42097758
0.37727324
0.29172185
0.15626706
0.028858719
0.0061257308
0.083127621
0.21181485
0.30093964
0.35017797
0.37163078
0.375365
0.36368779
0.33000653
0.26217733
0.15120685
0.035916883
0.0065465557
0.086510953
0.19551476
0.2684871
0.3080734
0.32515369
0.32811606
0.31884456
0.29192319
0.23696659
0.14493226
0.042203669
0.0075757018
0.087990867
0.18100042
0.24156427
0.27420268
0.28831884
0.29077717
0.28309769
0.260893
0.21551186
0.13837191
0.047319512
0.009579941
0.08854304
0.16840698
0.21961001
0.24759431
0.25998201
0.26217608
0.25536617
0.23611394
0.19755211
0.13227027
0.051266877
0.019687267
0.01965212
0.019650698
0.019650606
0.019650566
0.019650542
0.019650535
0.019650549
0.019650578
0.019650627
0.019650775
0.019654764
0.017008058
0.016698578
0.016682315
0.01667575
0.016672494
0.0166708
0.016670456
0.016671471
0.016673872
0.016678347
0.016688763
0.016715277
0.014891123
0.01466292
0.014650742
0.014639016
0.014630619
0.014625546
0.01462447
0.014627602
0.014634402
0.01464436
0.014657812
0.01466965
0.013235854
0.013052956
0.01304299
0.013027076
0.013012322
0.013002613
0.013000488
0.013006612
0.013019212
0.013035163
0.013049513
0.013057713
0.011909815
0.011758557
0.01174565
0.011724278
0.011703012
0.011690148
0.01168705
0.011695783
0.011712798
0.011735346
0.011753936
0.011763699
0.010831805
0.010705573
0.010689756
0.010666215
0.010651244
0.010676321
0.010672698
0.010677151
0.01065191
0.010678125
0.010699682
0.01071138
0.00995111
0.0098499932
0.0098433807
0.0098590178
0.0098393787
0.01105736
0.012014277
0.01016556
0.0097638007
0.0098450361
0.0098476253
0.0098541544
0.0092385189
0.0091727772
0.0092350908
0.0099438591
0.054133256
0.24069004
0.30664593
0.13772994
0.017490394
0.0092372792
0.0091935253
0.0091675547
0.0086778103
0.0086728029
0.0090141576
0.098027274
0.63251925
1.1533527
1.2740199
0.92981324
0.33191875
0.016660174
0.0087540814
0.0086402869
0.0082491386
0.0082954036
0.033602657
0.49467337
1.2394665
1.8320615
1.9467096
1.5854881
0.86548224
0.18749016
0.0093598169
0.0082516272
0.007906678
0.0085771699
0.15132972
0.7250873
1.3199669
1.9232016
1.9749425
1.8301045
1.0520496
0.41808337
0.026164968
0.007941528
0.0075855089
0.012319483
0.2572509
0.72955182
1.1845372
1.7225156
1.744941
1.706609
1.0533084
0.49408169
0.073421246
0.00769226
0.0072563776
0.023237197
0.29872989
0.67986767
1.0630134
1.4036017
1.4656054
1.2582895
0.86911952
0.49267765
0.12146101
0.0079063914
0.0069375904
0.038177843
0.30654269
0.60854449
0.86375366
1.0446007
1.0834019
0.96887901
0.74333524
0.46391907
0.15173849
0.0090755231
0.0066580648
0.053775804
0.29768952
0.5306356
0.69838943
0.79632497
0.81637128
0.75701382
0.62359316
0.42258646
0.16717856
0.011555937
0.0064230802
0.06815268
0.28043478
0.45906473
0.57336846
0.63145846
0.64255671
0.60900224
0.52441401
0.37847524
0.17256866
0.015510506
0.0063138994
0.079514104
0.25993022
0.39826522
0.48003481
0.51803465
0.5249098
0.50373081
0.44592409
0.33711419
0.17162296
0.020780489
0.0063860538
0.087300502
0.23916028
0.34812652
0.40941965
0.43644528
0.44117495
0.42643465
0.38425404
0.30061909
0.16684359
0.026851007
0.0067591112
0.091959488
0.2196155
0.30711027
0.35486486
0.3753533
0.37888432
0.36782152
0.33543707
0.26930627
0.15999402
0.033128913
0.0076083678
0.094150109
0.20194358
0.27346653
0.31181289
0.32810573
0.330903
0.32212933
0.2962742
0.24276385
0.15228052
0.039206039
0.0091413347
0.094555417
0.18630851
0.24565846
0.27728624
0.29076789
0.29309358
0.28581339
0.26447052
0.22027392
0.14450138
0.044530355
0.011495192
0.093912661
0.17279151
0.22307809
0.25027558
0.26216717
0.26425749
0.25775958
0.23917981
0.20153067
0.13725876
0.048284699
0.019653523
0.019650696
0.019650616
0.019650577
0.019650554
0.019650549
0.019650561
0.019650589
0.019650639
0.019650799
0.019658584
0.0167054
0.016684393
0.016676951
0.01667352
0.016671814
0.016671472
0.016672479
0.016674936
0.016679814
0.016692152
0.016997393
0.014666646
0.014653741
0.014641789
0.014633527
0.01462864
0.014627609
0.014630604
0.014637204
0.014647168
0.014660641
0.014890538
0.013056083
0.013046046
0.0130315
0.013017679
0.013008584
0.013006627
0.0130123
0.013024119
0.013038947
0.013051726
0.013235732
0.011762177
0.011749638
0.011730509
0.011710625
0.01169782
0.011695808
0.01170283
0.011720135
0.011740413
0.011756654
0.01190928
0.010710006
0.010694592
0.010673234
0.010650981
0.010654471
0.010677153
0.010648136
0.010662539
0.010683775
0.010702922
0.010831119
0.0098546059
0.0098452015
0.009851885
0.0097793238
0.0099865721
0.010164192
0.0098451769
0.0098666218
0.0098425402
0.0098490579
0.009951888
0.0091748133
0.009205374
0.0093533505
0.020886324
0.10098605
0.13744569
0.053345912
0.010890996
0.0092470363
0.009182714
0.0092449888
0.008666078
0.0087871718
0.03629969
0.38912492
0.82237893
0.92898027
0.63172884
0.16396336
0.010189775
0.008723484
0.0086982079
0.0083146411
0.013634724
0.31039297
0.94138355
1.4620134
1.5846738
1.2389092
0.62376897
0.086199077
0.0085069248
0.0082951112
0.0080627228
0.073078561
0.55276997
1.1212315
1.6418249
1.8294969
1.5293489
0.84144097
0.28092897
0.01232082
0.0079761292
0.0087455036
0.16489181
0.60175017
1.0194674
1.4665189
1.7060006
1.4174213
0.81826773
0.38208512
0.034391707
0.0076849175
0.012026032
0.21865484
0.57873971
0.90932554
1.1865152
1.2579316
1.0633582
0.74940144
0.40328933
0.067147947
0.0075806916
0.018963063
0.23953791
0.53178737
0.77021496
0.93194304
0.9687763
0.86435417
0.66003769
0.39254034
0.097092176
0.0079568364
0.028721034
0.24267163
0.47442864
0.64114277
0.73709586
0.75695888
0.6987734
0.56734285
0.36696827
0.11796007
0.0093201727
0.039596353
0.23591067
0.4177825
0.53626764
0.59719338
0.6089651
0.57362319
0.48545866
0.33550813
0.13004308
0.012204688
0.050036657
0.2240404
0.36726323
0.45433989
0.49600614
0.50370311
0.4802142
0.41778718
0.30367306
0.13562369
0.016862223
0.059257095
0.21010589
0.3241956
0.39052899
0.42094193
0.42641255
0.40955404
0.3630469
0.27419229
0.13666565
0.023010407
0.066732579
0.19587272
0.28814948
0.34031288
0.36365802
0.36780327
0.35496982
0.31887222
0.24805222
0.13471262
0.02975931
0.071949346
0.18234255
0.25814228
0.30018855
0.31881893
0.32211389
0.31189885
0.28297491
0.22541663
0.13101798
0.036172648
0.075254436
0.17008027
0.23305804
0.26770767
0.28307501
0.28580002
0.27736047
0.25352782
0.20598385
0.1266329
0.041652147
0.077670974
0.15935338
0.21242688
0.24197919
0.25534478
0.25774733
0.25034287
0.22981739
0.18957341
0.12252708
0.046134228
0.019662229
0.019650839
0.019650644
0.019650604
0.019650582
0.019650578
0.019650589
0.019650618
0.019650669
0.019651302
0.019676764
0.01699833
0.01669108
0.016680374
0.016676109
0.016674237
0.016673882
0.016674944
0.016677773
0.016684266
0.016702443
0.017002548
0.014890809
0.014660122
0.014648203
0.014640006
0.014635381
0.014634422
0.014637218
0.014643567
0.014653716
0.014665804
0.014890623
0.01323641
0.013051534
0.013040337
0.013028744
0.013020956
0.01301925
0.013024144
0.013034213
0.013046156
0.013055754
0.01323613
0.011910275
0.011756612
0.011742344
0.011726766
0.011715491
0.011712862
0.011720176
0.011734254
0.011749888
0.011761974
0.011910655
0.010831949
0.010703111
0.01068611
0.010669879
0.010657531
0.010651983
0.010662594
0.010677237
0.010694988
0.010710043
0.010833408
0.0099513038
0.0098498838
0.0098427775
0.0098709927
0.0098556995
0.0097637279
0.0098666743
0.0098474783
0.0098455805
0.009855638
0.0099541101
0.0092403363
0.0091848745
0.0092410323
0.0095619081
0.014101885
0.017436739
0.010882222
0.0092558906
0.0092057824
0.0091786092
0.0092440901
0.0086852518
0.0087279374
0.0094427973
0.063622553
0.26677574
0.3308853
0.16340003
0.017529296
0.00878031
0.0086757513
0.0086872268
0.0082681275
0.0085199186
0.056065868
0.41817694
0.77800691
0.86414536
0.62260734
0.2100405
0.012279702
0.0083338414
0.0082626206
0.007942386
0.012143257
0.22996734
0.65715624
0.97376987
1.0509564
0.84041744
0.44954545
0.06440292
0.008129607
0.0079231257
0.0076380402
0.034757479
0.33949225
0.6818035
0.91740037
1.0526151
0.81762706
0.52231719
0.15841839
0.0091141834
0.0076030899
0.0073428214
0.071202218
0.36963673
0.64217205
0.82595306
0.86869582
0.74901167
0.5162755
0.21516043
0.013717964
0.0072756867
0.0072071934
0.10433723
0.36580309
0.580696
0.71413694
0.74307082
0.65979453
0.48328486
0.23761422
0.023217084
0.0069698386
0.0074201938
0.1260446
0.34603518
0.51077362
0.60430481
0.62341376
0.56717469
0.43788395
0.24149456
0.036145961
0.0067211477
0.008362351
0.13780316
0.31921225
0.44475085
0.51125934
0.52428364
0.48533251
0.39032862
0.23513547
0.049719469
0.0066290168
0.01053824
0.14264627
0.29089666
0.38764021
0.43651621
0.44582495
0.41768995
0.34631355
0.22349315
0.061774829
0.0068182557
0.014447731
0.14277759
0.26402704
0.33997728
0.37720463
0.38417601
0.36297078
0.3078494
0.20966302
0.07164482
0.0075687833
0.019818705
0.13994991
0.23983436
0.30068504
0.32994977
0.3353741
0.31881205
0.27510692
0.19549031
0.0786233
0.0092281095
0.025838624
0.13552996
0.21870149
0.26830828
0.2918745
0.29622239
0.28292699
0.24755483
0.18204355
0.08283967
0.012016381
0.031710126
0.13065837
0.20047771
0.24145631
0.26084997
0.2644271
0.25348923
0.22434581
0.16992435
0.08512173
0.015848434
0.037030775
0.1262416
0.18502043
0.21955823
0.23607395
0.23914205
0.22978574
0.20509408
0.15936004
0.086883928
0.020159778
0.019687886
0.019653449
0.019650723
0.019650652
0.019650631
0.019650627
0.019650639
0.019650669
0.019650852
0.019656688
0.017005874
0.016709782
0.016688713
0.016681588
0.016678839
0.016678364
0.016679834
0.016684273
0.016693219
0.016996525
0.014891559
0.01466938
0.014658104
0.01465005
0.014645355
0.014644393
0.014647202
0.014653729
0.014661011
0.014891906
0.013236872
0.013058263
0.01304992
0.013042383
0.013036563
0.01303522
0.013039003
0.013046189
0.013052164
0.013237362
0.011911271
0.011764581
0.011754799
0.011744958
0.011737237
0.011735438
0.011740498
0.011749934
0.01175812
0.011910337
0.010833653
0.010713236
0.010701167
0.010689069
0.010680221
0.010678252
0.010683891
0.010695049
0.010705495
0.01083074
0.0099531259
0.0098590643
0.0098491373
0.0098433514
0.0098429128
0.0098451391
0.0098426591
0.0098456624
0.0098510666
0.0099485227
0.009239677
0.0091798015
0.0091895343
0.0092388847
0.0091920986
0.0092367715
0.0092471105
0.0092058433
0.0091773068
0.0092361194
0.0086750928
0.0086661196
0.0087476509
0.0090282175
0.012973553
0.016539735
0.010173903
0.0087799852
0.0086869676
0.0086814054
0.0082373556
0.0082984552
0.008712043
0.034687936
0.14641681
0.18641602
0.08548538
0.012254016
0.0083484017
0.00826799
0.0078828189
0.0079976667
0.016464796
0.16563932
0.368266
0.41683136
0.27938223
0.064025178
0.0086646959
0.0079497992
0.0075549695
0.0078978855
0.053050027
0.27714203
0.45470114
0.49313383
0.38073132
0.15766049
0.012945986
0.0076627494
0.0072264019
0.008621694
0.10290278
0.31761916
0.46129519
0.49197846
0.40224378
0.21445331
0.027051287
0.0074259306
0.006907888
0.011346139
0.13788677
0.3229807
0.43899822
0.46339693
0.39174132
0.2370073
0.048126442
0.0074236182
0.0066142386
0.017157359
0.15656257
0.3114451
0.40334568
0.42219137
0.36636284
0.24099706
0.070194762
0.0079810004
0.0063509835
0.025909065
0.16432193
0.29168468
0.36372951
0.37817185
0.33504633
0.23473947
0.087399658
0.0098290144
0.0061199452
0.03609898
0.16505553
0.26902255
0.32570836
0.33687759
0.30331874
0.22318507
0.098753502
0.013804006
0.0059837171
0.046023837
0.16149355
0.24650693
0.29164321
0.30043145
0.27391854
0.20942621
0.10523781
0.020298646
0.0059961804
0.054658105
0.15560356
0.22561614
0.2621061
0.26915544
0.24783913
0.19530749
0.10809947
0.028138622
0.0063018238
0.061550128
0.14872579
0.20697972
0.2369012
0.24264101
0.2252496
0.18190228
0.10847421
0.035884528
0.0071302432
0.066441269
0.14188324
0.19071724
0.21545114
0.2201724
0.20585154
0.16981365
0.10751849
0.042584556
0.0087464701
0.070317433
0.13575918
0.17679433
0.19749434
0.20144494
0.18946727
0.15927187
0.1064066
0.048102081
0.019680891
0.019654032
0.019650985
0.019650779
0.019650776
0.019650799
0.019651302
0.01965668
0.019677532
0.017002993
0.016711986
0.016693098
0.016689974
0.016688784
0.016692175
0.016702455
0.016996453
0.017003769
0.014889825
0.014669153
0.014659598
0.014659028
0.01465785
0.014660686
0.014665836
0.014891887
0.014890072
0.013234826
0.013057654
0.01305036
0.013050549
0.013049576
0.013051801
0.013055813
0.013237358
0.013234889
0.011909121
0.011764039
0.011756145
0.011755168
0.011754032
0.011756764
0.011762062
0.011910356
0.011908902
0.01083157
0.010712694
0.010703341
0.010701017
0.010699813
0.010703067
0.010710162
0.010830786
0.010830792
0.009951197
0.0098578398
0.0098487286
0.0098479263
0.0098477829
0.0098492325
0.0098557954
0.0099485941
0.0099491723
0.0092379254
0.0091761488
0.0091749867
0.0091886715
0.0091936451
0.0091828633
0.0091787872
0.0092362169
0.0092332349
0.0086734901
0.0086569742
0.0086852075
0.0087396363
0.0087539267
0.0087234728
0.0086758507
0.008681521
0.0086638971
0.0082358388
0.0082795751
0.008337382
0.0088962698
0.0093444273
0.0085038641
0.0083336012
0.0082680684
0.008219333
0.0078814209
0.0079796452
0.0090138498
0.019493845
0.025938707
0.012240961
0.0081265235
0.0079497195
0.0078588656
0.0075536923
0.0077497736
0.015921832
0.057088269
0.072862629
0.033919874
0.0090855059
0.0076621958
0.0075301504
0.0072246041
0.0080183982
0.033251699
0.10039298
0.12073781
0.066259286
0.013593312
0.0074238581
0.0072054318
0.0069049671
0.0095120505
0.054504371
0.13146493
0.15107432
0.09611366
0.022940209
0.0074178299
0.006891327
0.0066115007
0.013103473
0.075065109
0.14923036
0.16661397
0.1170619
0.035732559
0.0079664425
0.0066000392
0.0063531029
0.019139555
0.091004375
0.15725709
0.17209627
0.1292735
0.049244468
0.0097935339
0.006337921
0.0061427293
0.026967642
0.10142241
0.15882482
0.17123195
0.13498302
0.061309198
0.01373249
0.0061194036
0.0060528932
0.035459436
0.1072516
0.15621545
0.16652091
0.13614476
0.0712131
0.020182988
0.0059669244
0.0061720844
0.043560468
0.10966348
0.151148
0.15972696
0.13429019
0.078249505
0.027996722
0.0059718504
0.0067263107
0.050665184
0.10969719
0.14486994
0.15205858
0.13067511
0.082519461
0.035736041
0.0062294802
0.0080140123
0.056380017
0.10841599
0.13830848
0.1443155
0.12635395
0.084851563
0.042444537
0.0069333956
0.010235057
0.061015281
0.10709534
0.13220696
0.13710119
0.12229981
0.086651383
0.047973112
0.0083284673
0.019676296
0.019669572
0.019657058
0.019654764
0.019658583
0.019676765
0.017008315
0.017002071
0.016995854
0.016715292
0.016997416
0.017002616
0.014893994
0.01489189
0.014890537
0.01466968
0.014890586
0.014890752
0.013238238
0.013237464
0.013236117
0.013057764
0.01323581
0.013236313
0.011911783
0.011911813
0.011909938
0.011763776
0.011909397
0.011910886
0.010833274
0.010834756
0.010832344
0.010711485
0.010831265
0.010833673
0.0099513104
0.0099568111
0.0099546488
0.0098542924
0.0099520541
0.0099543998
0.0092351733
0.0092506055
0.0092513367
0.0091676994
0.0092451685
0.009244412
0.0086660747
0.0087015779
0.0087112986
0.0086403543
0.0086983422
0.0086875418
0.0082225625
0.0082891379
0.0083153365
0.0082515341
0.0082950259
0.0082628073
0.0078636761
0.0079593379
0.0080040237
0.0079421445
0.0079755224
0.0079229708
0.0075359941
0.007644393
0.0077738751
0.0076895494
0.0076827646
0.0076024935
0.0072115379
0.0073277608
0.0079322944
0.007894656
0.0075721421
0.0072747228
0.0068974401
0.0071503015
0.0090440163
0.0090419725
0.0079284437
0.0069685433
0.0066067921
0.0072424917
0.011672836
0.011489366
0.0092498359
0.0067174952
0.0063425125
0.0078348715
0.015985154
0.015402479
0.012070056
0.0066201889
0.0061153921
0.0091946519
0.021880804
0.020630801
0.016648536
0.0067965538
0.005943027
0.011497998
0.028870248
0.026665232
0.022732465
0.0075205905
0.0058928136
0.01477888
0.035919603
0.0329157
0.029447062
0.0091391744
0.0060739437
0.018943843
0.042198098
0.038969825
0.035855564
0.011876977
0.0066847795
0.023532904
0.047306551
0.044296757
0.041347944
0.01566896
0.0080427716
0.028038647
0.05124467
0.048064764
0.045854043
0.019959981
0.019676296
0.019676765
0.017632635
0.017624075
0.019669572
0.019658583
0.017621286
0.017611765
0.019687546
0.017639052
0.017634984
0.019657058
0.019654765
0.017609379
0.017940138
0.019677402
0.017635063
0.01763904
0.019654763
0.019657059
0.017940128
0.017609368
0.019658583
0.019669571
0.017611771
0.017621279
0.019676765
0.019676296
0.017624072
0.017632633
0.0079726528
0.019756863
0.0097044228
0.022532639
0.027786605
0.045628662
0.03024828
0.049102635
0.011510708
0.011812395
0.013694932
0.050982846
0.04790755
0.053652461
0.061057965
0.0096045149
0.013713894