/*--------------------------------*- C++ -*----------------------------------*\
  =========                 |
  \\      /  F ield         | OpenFOAM: The Open Source CFD Toolbox
   \\    /   O peration     | Website:  https://openfoam.org
    \\  /    A nd           | Version:  8
     \\/     M anipulation  |
\*---------------------------------------------------------------------------*/
FoamFile
{
    version     2.0;
    format      ascii;
    class       volScalarField;
    location    "200";
    object      nut;
}
// * * * * * * * * * * * * * * * * * * * * * * * * * * * * * * * * * * * * * //

dimensions      [0 2 -1 0 0 0 0];

internalField   nonuniform List<scalar> 
72028
(
0.0019974601
0.0019974125
0.0019737703
0.0019736062
0.0019523813
0.0019522772
0.0019337197
0.0019336651
0.0019173334
0.0019173249
0.0019031273
0.0019031934
0.001891478
0.0018917139
0.001883443
0.0018840816
0.0018806141
0.0018820985
0.0018837121
0.0018866065
0.001890015
0.0018944451
0.0018937417
0.0018987105
0.0018920234
0.0018964362
0.0018872197
0.0018913999
0.0018825421
0.0018904012
0.0018808462
0.0018960916
0.0018895464
0.0019345541
0.0019208167
0.0020252975
0.0020094753
0.0022117344
0.0021988584
0.0025379557
0.0025717875
0.0030652612
0.003222892
0.0038236904
0.0019973544
0.0019971704
0.0019971273
0.0019971201
0.0019971316
0.0019972054
0.0019974273
0.0019736012
0.0019708402
0.0019707525
0.0019707273
0.0019707855
0.0019735121
0.0019736104
0.0019523107
0.0019499226
0.0019498996
0.0019498906
0.0019499115
0.001952282
0.0019523104
0.0019336992
0.0019315515
0.0019315509
0.0019315434
0.0019315539
0.0019336809
0.0019337022
0.0019173606
0.001915482
0.0019154984
0.0019154795
0.0019154918
0.0019173433
0.0019173638
0.0019032337
0.001901796
0.0019018886
0.0019018483
0.0019018436
0.0019032281
0.001903231
0.0018917465
0.0018912561
0.0018916675
0.0018916084
0.0018914714
0.0018918313
0.0018917239
0.0018840178
0.0018856668
0.0018871339
0.0018870778
0.0018864655
0.0018844906
0.0018839384
0.0018816498
0.0018876903
0.0018915806
0.0018917152
0.0018903259
0.0018833425
0.0018814263
0.0018852221
0.0018978305
0.0019028395
0.0019001137
0.0019058894
0.0018895555
0.0018847122
0.0018917608
0.0019061747
0.0019866381
0.002050101
0.0019254694
0.0018999086
0.0018908569
0.0018952779
0.0019595228
0.0025675374
0.0029410915
0.0021759661
0.0019073714
0.0018941235
0.0018929539
0.0022176869
0.0042962112
0.0053215865
0.0030289888
0.0019137221
0.0018917787
0.0018878783
0.0028733317
0.0068177335
0.0081116685
0.0047186538
0.0019578488
0.0018862724
0.001883314
0.0040593315
0.0092776648
0.010622669
0.0068626206
0.002096664
0.0018809098
0.0018865279
0.0056631182
0.01136528
0.012966373
0.0089131023
0.0024303907
0.0018778995
0.0019162142
0.0073644692
0.013269256
0.015033151
0.010696827
0.0030683964
0.0018791022
0.0019933852
0.0089248318
0.015068587
0.016811834
0.012356719
0.0040535107
0.0019056829
0.002153736
0.010369448
0.016659132
0.018357919
0.013964592
0.0052642374
0.0019772724
0.002456405
0.011815074
0.01804224
0.019630544
0.015412623
0.0065786198
0.0021366192
0.0029553014
0.013197097
0.019218791
0.020664962
0.016715266
0.0079321866
0.0024478917
0.0036541086
0.01458221
0.020237896
0.021479845
0.017987219
0.0092942276
0.002984057
0.0019972952
0.0019971189
0.0019971084
0.001997108
0.0019971081
0.001997108
0.0019971091
0.0019971302
0.001997361
0.0019735327
0.0019707045
0.0019706155
0.0019705807
0.0019705745
0.0019705934
0.0019706552
0.0019708144
0.001973555
0.001952264
0.0019498901
0.0019498245
0.0019497798
0.0019497688
0.0019497985
0.0019498605
0.0019499145
0.0019522584
0.0019336659
0.0019315561
0.0019315124
0.0019314808
0.0019314708
0.0019314946
0.0019315356
0.0019315545
0.0019336451
0.0019173547
0.0019155089
0.0019155122
0.0019155211
0.0019155205
0.001915516
0.0019155093
0.0019155156
0.0019173075
0.0019032995
0.0019019162
0.0019021852
0.0019024207
0.0019024859
0.0019023129
0.001902043
0.001901922
0.0019031796
0.0018919972
0.0018917631
0.0018931526
0.0018942709
0.0018947463
0.0018937856
0.0018924155
0.0018916275
0.0018916791
0.0018846878
0.001887455
0.0018930647
0.0018974345
0.0019015675
0.0018950988
0.0018898822
0.0018865969
0.0018838978
0.0018831022
0.0018932592
0.0019062524
0.0019490505
0.0019682678
0.0019090256
0.0019013483
0.0018895913
0.0018813796
0.001887837
0.0019097119
0.0021664012
0.0048723549
0.0064463757
0.0029380299
0.0019392732
0.0019015252
0.0018846398
0.0018956865
0.0020058017
0.0063192632
0.017484538
0.020831198
0.012033015
0.0027765865
0.0019134848
0.0018907429
0.0019000923
0.0027304811
0.014338463
0.029129595
0.032727594
0.022746517
0.0069904221
0.0019681012
0.0018939546
0.0018981881
0.0049867217
0.021129206
0.035711116
0.038983675
0.029725534
0.012072307
0.0022307595
0.0018914705
0.001895986
0.0078676695
0.025747068
0.038921817
0.041774539
0.033619291
0.016505532
0.0029667175
0.0018857802
0.0019019019
0.010759436
0.028581804
0.040239031
0.042721828
0.035592976
0.020032624
0.0043947278
0.0018805513
0.0019448131
0.013505645
0.030301527
0.040605941
0.042773461
0.036516292
0.02261677
0.0063075665
0.0018789281
0.0020674236
0.015958646
0.031342807
0.040484986
0.042385258
0.036871801
0.024423524
0.0082232571
0.0018861974
0.0023423973
0.018002062
0.031964028
0.040105172
0.041781098
0.036898685
0.025706888
0.0099546966
0.00192574
0.0028385806
0.019584532
0.03230464
0.039597869
0.041091802
0.036729966
0.026613976
0.011606319
0.0020278935
0.0036053766
0.020819259
0.03247838
0.039060404
0.040404345
0.03647257
0.027299006
0.013236835
0.0022459836
0.0045994276
0.021835906
0.032598193
0.038557317
0.039764204
0.036220711
0.027866444
0.01475893
0.0026628014
0.0057506428
0.022898004
0.032777287
0.038149955
0.039228428
0.036048321
0.028470152
0.016247167
0.0032997168
0.0019973542
0.0019971188
0.0019971078
0.0019971077
0.0019971076
0.0019971075
0.0019971076
0.0019971077
0.0019971082
0.0019971349
0.0019973845
0.0019736001
0.0019707042
0.0019705865
0.0019705385
0.0019705195
0.0019705161
0.0019705265
0.0019705567
0.0019706321
0.0019708374
0.0019736674
0.0019523102
0.00194989
0.0019497904
0.0019497121
0.0019496728
0.001949665
0.0019496877
0.0019497451
0.0019498391
0.0019499152
0.0019523316
0.0019336998
0.0019315559
0.0019314899
0.0019314264
0.0019313948
0.0019313891
0.0019314055
0.0019314544
0.0019315214
0.0019315484
0.0019336926
0.0019173626
0.0019155083
0.001915519
0.0019155848
0.0019156873
0.0019157102
0.0019156366
0.0019155421
0.001915511
0.0019154962
0.0019173264
0.001903236
0.001901915
0.0019023501
0.00190313
0.0019039908
0.0019040581
0.0019035927
0.0019026906
0.0019021176
0.0019018558
0.0019031405
0.0018917472
0.0018917625
0.0018939784
0.0018980175
0.0019051124
0.0019041626
0.0019011406
0.0018956439
0.0018927646
0.0018914158
0.0018915022
0.0018840157
0.0018874533
0.0018962419
0.0018979629
0.0019966119
0.0020547623
0.0019263873
0.0019026998
0.001891059
0.0018860057
0.0018834216
0.001881646
0.001893255
0.0019144637
0.0029563466
0.011048448
0.014083664
0.0065938343
0.0020469716
0.0019046519
0.0018882021
0.0018803588
0.0018852216
0.0019094845
0.0029767428
0.021618543
0.04544253
0.051239508
0.03492884
0.009344184
0.0019898264
0.001898695
0.0018828727
0.0018917794
0.0020066236
0.012333369
0.045072871
0.069801893
0.075218361
0.059639671
0.028198116
0.0036038163
0.0019119674
0.0018883487
0.0018953291
0.0027361046
0.024009185
0.056401682
0.076555145
0.080723328
0.068444916
0.041289133
0.0093171704
0.0019336669
0.0018914942
0.0018930339
0.0050088293
0.031506137
0.059642326
0.076363246
0.0798827
0.069666102
0.046934357
0.015615617
0.002088647
0.0018895806
0.0018879843
0.0078987701
0.0353905
0.059641087
0.073726934
0.076648246
0.068115833
0.048777508
0.020522941
0.0025355298
0.0018845923
0.001883384
0.010800645
0.03721427
0.058196859
0.070063857
0.072484216
0.06537058
0.048881765
0.023905283
0.0034956672
0.0018795432
0.0018869193
0.013546262
0.037972235
0.056195704
0.066285651
0.068320346
0.062315885
0.048164487
0.02610679
0.004984525
0.0018758568
0.0019171458
0.015995607
0.03815192
0.05409544
0.062803713
0.06454791
0.059387304
0.047104196
0.027594531
0.0067117321
0.0018778576
0.0019956897
0.018032668
0.038024884
0.052103577
0.059736154
0.061258949
0.05674549
0.045947957
0.028614403
0.0083452603
0.0018922502
0.0021584433
0.019609922
0.037745148
0.050302504
0.057082272
0.058431295
0.054427218
0.044820008
0.029297514
0.0098562689
0.0019412884
0.0024653489
0.020840696
0.037413979
0.048721955
0.054798737
0.056004859
0.052420178
0.043793309
0.029756821
0.011341859
0.0020600435
0.0029694736
0.021854265
0.037113146
0.047345107
0.052828426
0.053916033
0.050681725
0.042892509
0.03012902
0.012807276
0.0023112813
0.0036726272
0.022911873
0.03690539
0.046217338
0.05122972
0.052225991
0.049264161
0.042160908
0.030548868
0.014274785
0.0027798973
0.0019971704
0.0019971083
0.0019971076
0.0019971074
0.0019971071
0.001997107
0.0019971072
0.0019971075
0.0019971078
0.0019971105
0.0019972663
0.0019708405
0.0019706154
0.0019705383
0.0019705054
0.0019704895
0.0019704863
0.0019704958
0.0019705188
0.0019705673
0.0019706776
0.0019735538
0.0019499229
0.0019498241
0.0019497116
0.0019496442
0.0019496123
0.0019496063
0.0019496242
0.0019496723
0.0019497618
0.0019498633
0.001952305
0.0019315513
0.0019315112
0.0019314254
0.0019313807
0.001931388
0.0019313951
0.0019313797
0.0019313941
0.0019314665
0.0019315279
0.0019337139
0.0019154805
0.0019155096
0.0019155829
0.0019158223
0.0019161509
0.0019162771
0.0019159753
0.0019156872
0.0019155261
0.0019154806
0.0019174154
0.0019017923
0.0019021809
0.0019031274
0.0019047122
0.001906526
0.001907808
0.0019051669
0.0019040432
0.0019025333
0.0019019049
0.0019034147
0.0018912495
0.0018931467
0.0018980161
0.0019054489
0.0019002768
0.0019069171
0.001889028
0.001906285
0.0018949294
0.0018918497
0.0018922944
0.0018856569
0.0018930431
0.0018979962
0.0024124094
0.0069433054
0.00905146
0.0040838473
0.0019820403
0.0019025051
0.00188785
0.0018854956
0.0018876872
0.0019057118
0.0029600913
0.024631903
0.053371487
0.060308351
0.040765379
0.010026701
0.0019700915
0.0018939866
0.0018850924
0.0018978524
0.0021681607
0.021666181
0.067820052
0.10276134
0.11052252
0.088045722
0.04448138
0.0065511313
0.001906841
0.0018919034
0.0019061957
0.0063627216
0.045147316
0.090412715
0.11196486
0.12187624
0.10809714
0.069184396
0.021793922
0.0021392342
0.0019016259
0.0019609097
0.014428876
0.056469215
0.092853496
0.11043043
0.11842866
0.10558783
0.076179013
0.03450999
0.0036600116
0.0019078327
0.0022240941
0.021240321
0.059698398
0.089969309
0.10954706
0.11401208
0.10132377
0.07613556
0.040967206
0.0069661603
0.0019098622
0.0028919394
0.025842552
0.059685916
0.084964477
0.10010016
0.10331808
0.093941454
0.073580125
0.043590418
0.010198195
0.001941973
0.0040947465
0.028662523
0.05823197
0.07930783
0.091194448
0.093617456
0.086455847
0.069959052
0.04436234
0.013231005
0.0020439835
0.005709875
0.030372834
0.056222781
0.074011589
0.083703602
0.085638003
0.079880954
0.066201363
0.044237087
0.015892706
0.0022797875
0.0074124607
0.031403788
0.054116079
0.069400114
0.077583487
0.079201762
0.074371732
0.062729241
0.043673582
0.018153935
0.0027215749
0.0089703541
0.032012708
0.052118982
0.065482786
0.07258386
0.07398285
0.069802567
0.05966732
0.042925442
0.019977062
0.0033831854
0.010413028
0.032341695
0.050313573
0.062174558
0.068454574
0.069689968
0.065996949
0.057021499
0.042127839
0.021377952
0.0042082748
0.01185858
0.03250637
0.048729817
0.059367318
0.064995762
0.066103546
0.062792802
0.054751012
0.0413659
0.022453811
0.0051792989
0.013237196
0.032620095
0.047350303
0.05697539
0.062082167
0.063089076
0.060081745
0.05279741
0.040689303
0.023318958
0.0062411511
0.01461933
0.032793666
0.046220428
0.055062997
0.059796648
0.060733968
0.057938492
0.051214812
0.040147138
0.024249124
0.0073556079
0.001997456
0.0019971273
0.001997108
0.0019971076
0.0019971071
0.0019971065
0.0019971063
0.0019971067
0.0019971073
0.0019971077
0.0019971086
0.0019971623
0.0019737657
0.0019707529
0.0019705807
0.001970519
0.0019704893
0.0019704729
0.0019704693
0.0019704794
0.0019705019
0.0019705426
0.0019706446
0.0019734853
0.0019523792
0.0019499002
0.0019497795
0.0019496718
0.0019496117
0.0019495858
0.0019495813
0.001949595
0.0019496363
0.0019497177
0.0019498486
0.0019522775
0.0019337191
0.0019315511
0.0019314798
0.0019313928
0.001931387
0.001931448
0.0019314665
0.001931415
0.0019313774
0.0019314284
0.0019315241
0.0019336879
0.0019173341
0.0019154972
0.0019155185
0.001915684
0.0019161492
0.001916957
0.001917123
0.0019165576
0.001915867
0.0019155656
0.0019154951
0.001917392
0.0019031285
0.0019018851
0.0019024162
0.0019039858
0.0019065228
0.0019160366
0.0019169573
0.0019107423
0.0019048781
0.001903013
0.0019020499
0.0019034241
0.0018914788
0.0018916618
0.0018942653
0.0019051047
0.0019002703
0.0020492262
0.0021579728
0.0019579903
0.0019015465
0.0018973959
0.0018925871
0.0018924543
0.0018834429
0.0018871268
0.0018974349
0.0019967516
0.0069435747
0.022790225
0.028116243
0.014464003
0.002852904
0.0018909572
0.0018912625
0.0018861531
0.001880614
0.0018915721
0.0019491548
0.011063709
0.053382617
0.090938795
0.099439797
0.074950718
0.030402452
0.002697134
0.0019046801
0.0018870638
0.0018837185
0.0019027295
0.0048973774
0.045515915
0.10279738
0.1430623
0.15141018
0.12636958
0.075069911
0.019684041
0.0020318505
0.0018961073
0.0018900408
0.0019879525
0.017565438
0.069892024
0.11200534
0.15167304
0.16262646
0.14379521
0.096483673
0.042024871
0.0042000361
0.0019094289
0.0018937929
0.0025761277
0.029227936
0.076619741
0.11044969
0.13987147
0.15438086
0.13775259
0.097664511
0.053476941
0.0103214
0.0019345634
0.0018920917
0.0043257099
0.035792053
0.076399095
0.1095465
0.1341823
0.1396731
0.12353091
0.093857636
0.057084719
0.015975589
0.0020541121
0.0018872973
0.0068594629
0.038983759
0.073748248
0.10009677
0.11681623
0.12042836
0.10990542
0.088070824
0.057396927
0.02021211
0.00241195
0.0018826226
0.0093166329
0.040287212
0.07007739
0.091190887
0.10329479
0.10578113
0.098440654
0.081802511
0.056259782
0.023295227
0.0031432475
0.0018810243
0.011400391
0.040642356
0.066294452
0.083700265
0.093171854
0.095061318
0.089432309
0.076073212
0.054527107
0.025487576
0.0041946399
0.0018899602
0.013303785
0.040511641
0.062809031
0.077580205
0.08543648
0.086984033
0.08235495
0.071154707
0.052653208
0.026988967
0.0054539737
0.0019219267
0.015098708
0.040123978
0.059738669
0.072580474
0.079351007
0.08067905
0.076701897
0.067012025
0.05084492
0.027991436
0.0068691867
0.002011782
0.016683865
0.039611148
0.057082526
0.068451035
0.074429021
0.075601447
0.072091029
0.063529171
0.049184041
0.028666612
0.0083292639
0.0022035561
0.018061914
0.039069195
0.05479726
0.064992098
0.07036007
0.071414294
0.068259853
0.060579442
0.047705372
0.029132928
0.0097581984
0.0025804026
0.019234315
0.038562361
0.052825588
0.062078408
0.066970926
0.067934233
0.065054794
0.058070149
0.046402979
0.029488749
0.011102936
0.0032370288
0.020249688
0.038151865
0.051225748
0.059792761
0.064367116
0.065272098
0.062571716
0.05607075
0.045329026
0.029837671
0.012339755
0.0019974127
0.0019971201
0.0019971081
0.0019971075
0.001997107
0.0019971063
0.001997106
0.0019971065
0.0019971072
0.0019971077
0.0019971086
0.0019971405
0.0019736067
0.0019707281
0.0019705747
0.0019705157
0.001970486
0.0019704694
0.0019704658
0.001970476
0.0019704987
0.0019705382
0.0019706329
0.0019708683
0.0019522786
0.0019498921
0.0019497691
0.0019496642
0.0019496057
0.0019495814
0.0019495772
0.0019495899
0.0019496295
0.0019497087
0.0019498359
0.0019499164
0.0019336672
0.0019315449
0.0019314707
0.0019313876
0.001931394
0.0019314665
0.0019314869
0.0019314317
0.0019313766
0.0019314202
0.0019315162
0.0019315331
0.0019173279
0.0019154802
0.0019155194
0.0019157074
0.001916275
0.0019171227
0.0019172705
0.001916816
0.0019159081
0.0019155779
0.0019154991
0.0019154401
0.0019031957
0.0019018475
0.0019024836
0.0019040528
0.0019078004
0.0019169606
0.0019169577
0.0019154037
0.0019047167
0.0019031445
0.001902109
0.0019016859
0.0018917163
0.0018916067
0.0018947428
0.0019041485
0.0019067834
0.0021572446
0.0023322516
0.0019843063
0.0018869833
0.0018983494
0.0018928665
0.0018909569
0.0018840829
0.0018870757
0.0019015597
0.002054331
0.0090360098
0.028088061
0.033758404
0.018163784
0.0034715389
0.0019006461
0.001892305
0.0018849052
0.0018821004
0.0018917157
0.0019680856
0.014064279
0.060271275
0.099400143
0.1081081
0.082970395
0.035983841
0.0033587498
0.001906933
0.0018859476
0.0018866065
0.0019000961
0.0064386896
0.051235425
0.11053341
0.15139241
0.15925995
0.13480858
0.082081969
0.023792127
0.0021245859
0.0018948615
0.0018944361
0.0020496855
0.02081152
0.075247127
0.12190048
0.16265791
0.16869233
0.156048
0.1027059
0.046829452
0.0054025667
0.0019073418
0.0018986839
0.0029366194
0.032677724
0.080652176
0.11839645
0.15439126
0.15999849
0.15310512
0.10827398
0.057530301
0.012432245
0.0019246835
0.0018963949
0.005305185
0.038932469
0.079831686
0.11398352
0.13965885
0.14475464
0.12883526
0.097707604
0.060469459
0.018533112
0.0020656904
0.0018913493
0.0080878577
0.041726418
0.07660733
0.10329281
0.12041582
0.12407513
0.11336424
0.091100831
0.060279275
0.022757393
0.0024427597
0.0018903657
0.010594662
0.042677686
0.072448961
0.09359453
0.10576951
0.10827199
0.10089302
0.084208996
0.058712912
0.025672801
0.0031535938
0.0018959067
0.012936877
0.042733671
0.068289396
0.085617705
0.095051128
0.096934222
0.091331647
0.078046632
0.056628445
0.027625572
0.0042156116
0.0019341004
0.015004359
0.042349695
0.064520623
0.079183891
0.086975112
0.08850948
0.083923733
0.07282488
0.054473641
0.028907258
0.0055148667
0.0020243222
0.016783641
0.04174941
0.061234785
0.073967006
0.080671133
0.081985777
0.07805162
0.068462166
0.052441437
0.029712115
0.0068421764
0.0022097302
0.018330628
0.041063222
0.058409747
0.069675777
0.075594322
0.076754877
0.07328227
0.064810855
0.050600731
0.030233012
0.0081188196
0.0025342979
0.019604391
0.040378507
0.055985469
0.0660907
0.071407806
0.072451958
0.069329532
0.061726433
0.048972753
0.030564964
0.0093947677
0.0030591834
0.020639547
0.039740748
0.0538984
0.063077307
0.067928251
0.068883379
0.06602996
0.059108472
0.047541309
0.030784505
0.010663032
0.003814756
0.021455384
0.039206923
0.052209688
0.060722946
0.065266439
0.06616539
0.063484379
0.057030185
0.046360176
0.030972539
0.011759914
0.0019971317
0.001997108
0.0019971076
0.0019971072
0.0019971067
0.0019971065
0.0019971068
0.0019971073
0.0019971077
0.0019971087
0.0019971749
0.0019707864
0.0019705938
0.0019705264
0.0019704959
0.0019704796
0.001970476
0.0019704859
0.0019705084
0.0019705513
0.0019706646
0.001973499
0.0019499132
0.0019497993
0.0019496877
0.0019496244
0.0019495954
0.0019495901
0.0019496057
0.0019496503
0.0019497347
0.0019498628
0.0019522701
0.0019315562
0.0019314955
0.0019314054
0.00193138
0.0019314157
0.0019314321
0.0019313935
0.0019313818
0.0019314436
0.0019315298
0.0019336658
0.0019154938
0.0019155167
0.0019156363
0.0019159753
0.001916558
0.0019168164
0.001916253
0.0019157821
0.0019155456
0.0019154894
0.0019173421
0.0019018446
0.0019023134
0.0019035913
0.0019051613
0.0019107331
0.0019153999
0.0019073366
0.0019045325
0.0019027908
0.0019019866
0.0019032997
0.0018914723
0.0018937857
0.0019011307
0.0018889493
0.0019577428
0.0019840972
0.0019087483
0.001905886
0.0018962496
0.0018922618
0.0018921312
0.0018864668
0.0018950984
0.0019261221
0.0040704794
0.014429395
0.018136765
0.0089413249
0.0022385412
0.0019036874
0.0018895428
0.0018853632
0.0018903224
0.0019089496
0.0065702492
0.0407
0.07487542
0.082909406
0.060157554
0.020792641
0.0021897537
0.0019009722
0.0018853671
0.0019058458
0.0029310408
0.034869804
0.088026451
0.12630844
0.13474779
0.11043607
0.062204654
0.013137092
0.0019360876
0.0018935939
0.0019251289
0.011970994
0.059536244
0.10807193
0.14377549
0.15599615
0.13623849
0.085374491
0.033447238
0.0028040053
0.0019049783
0.0021713642
0.022625194
0.068340309
0.10551754
0.13771681
0.15305301
0.13443934
0.088857653
0.045829834
0.0069916918
0.001916466
0.0030081318
0.029595063
0.069567258
0.1012739
0.12349677
0.12880413
0.11401039
0.086653846
0.050680444
0.011779305
0.0019690415
0.0046747821
0.033499343
0.068031035
0.093897531
0.10987664
0.11334637
0.10334229
0.082254624
0.051923875
0.015851602
0.0021474431
0.006803957
0.035484072
0.06529834
0.086417889
0.098417531
0.10087896
0.093633414
0.077100303
0.051564207
0.019057663
0.0025765951
0.0088525317
0.036419041
0.062254127
0.079847931
0.089412929
0.091319792
0.085647455
0.072178338
0.050477467
0.021573105
0.0033711732
0.010635797
0.036787336
0.05933433
0.074342816
0.082338031
0.083913455
0.079207089
0.067840275
0.049124193
0.023454876
0.0044883312
0.012291513
0.036826429
0.056699977
0.069776997
0.076686727
0.07804252
0.073986295
0.064125607
0.047734703
0.024813991
0.0058134626
0.013900321
0.036667955
0.05438799
0.065974125
0.072077195
0.07327411
0.069692986
0.060972512
0.046413652
0.02576385
0.0072115505
0.015352304
0.036418895
0.052386089
0.062772225
0.068247093
0.06932214
0.066107318
0.058288909
0.045217148
0.0264729
0.0086116804
0.016659849
0.036174036
0.050651757
0.060062988
0.065042896
0.066023187
0.063094465
0.055995862
0.044160998
0.027051013
0.0099617094
0.017935593
0.036007427
0.049237377
0.057921035
0.062560363
0.063478027
0.060741068
0.054155851
0.043293383
0.027654299
0.011251325
0.0019972054
0.0019971091
0.0019971077
0.0019971075
0.0019971073
0.0019971072
0.0019971073
0.0019971076
0.0019971079
0.0019971125
0.0019973264
0.0019735128
0.001970656
0.0019705573
0.0019705193
0.0019705027
0.0019704994
0.001970509
0.0019705338
0.001970592
0.001970756
0.0019735566
0.0019522832
0.0019498618
0.0019497462
0.0019496735
0.0019496377
0.0019496307
0.0019496513
0.0019497034
0.0019497983
0.0019499023
0.001952286
0.0019336824
0.0019315371
0.0019314561
0.0019313963
0.0019313799
0.0019313786
0.0019313834
0.0019314194
0.001931496
0.0019315548
0.0019336962
0.0019173437
0.0019155109
0.0019155443
0.0019156904
0.0019158705
0.001915911
0.0019157845
0.0019156014
0.001915518
0.0019155112
0.0019173873
0.0019032265
0.0019020451
0.0019026933
0.0019040462
0.0019048801
0.0019047175
0.0019045348
0.0019032886
0.0019023077
0.0019019214
0.0019033245
0.0018918288
0.0018924186
0.0018956433
0.0019062893
0.0019015548
0.0018869669
0.0019058885
0.0018992696
0.0018937558
0.0018917182
0.0018920025
0.0018844906
0.0018898852
0.0019026823
0.0019815247
0.0028469025
0.003461975
0.0022368534
0.0019061209
0.001895297
0.0018871194
0.0018846887
0.0018833444
0.0019013523
0.002046183
0.0099984072
0.030343955
0.035898054
0.020738767
0.0035352651
0.0019067988
0.0018918072
0.0018832232
0.0018895434
0.0019390102
0.009317497
0.044441974
0.075018808
0.081972198
0.062107628
0.025423316
0.0026821237
0.0019081715
0.0018883283
0.0018998548
0.0027678144
0.028135617
0.069159292
0.096443939
0.10261304
0.085281703
0.049714733
0.010624641
0.001936988
0.0018966613
0.0019071985
0.0069421245
0.041214396
0.076150879
0.097629427
0.10820902
0.088789951
0.06036089
0.021519777
0.0022480076
0.0019012202
0.0019131734
0.011986278
0.046859414
0.076105387
0.09382845
0.097656395
0.086601496
0.062973817
0.028995493
0.0033653479
0.0018995745
0.0019560729
0.016409912
0.04870569
0.073549873
0.088043342
0.091060803
0.082213939
0.062484358
0.033113776
0.0054925806
0.0018981513
0.002091088
0.019937006
0.048816406
0.069930538
0.081778472
0.084176035
0.077067324
0.060620078
0.035197128
0.0080117991
0.0019058304
0.0024173515
0.022530014
0.048105864
0.066174803
0.076051975
0.078018625
0.072150898
0.058267793
0.036197505
0.010248212
0.0019524051
0.0030439389
0.02434479
0.04705238
0.062704296
0.07113526
0.072800645
0.067817327
0.055886426
0.036590955
0.012185177
0.0020793325
0.0040166452
0.02563369
0.045902304
0.059643666
0.066993734
0.068440918
0.064106367
0.053672412
0.036640275
0.014058205
0.0023548958
0.0052196088
0.026546954
0.044779415
0.056998909
0.063511714
0.064792037
0.06095636
0.051695791
0.036498964
0.015784519
0.0028588952
0.0065285987
0.027238525
0.043756834
0.054729367
0.060562683
0.061709603
0.058275276
0.049973858
0.036281747
0.017287144
0.0035867244
0.0078796378
0.027813645
0.042859515
0.052776633
0.058053997
0.059093251
0.055984202
0.048479063
0.036079619
0.018574007
0.0045213299
0.0092399179
0.028424106
0.042130765
0.051194653
0.05605494
0.057016141
0.054145702
0.04725699
0.035960327
0.019809981
0.0055842928
0.0019974278
0.0019971303
0.0019971082
0.0019971078
0.0019971077
0.0019971077
0.0019971077
0.0019971079
0.0019971089
0.0019971591
0.0019736123
0.0019708155
0.0019706333
0.0019705685
0.0019705436
0.0019705394
0.0019705528
0.0019705929
0.0019706782
0.00197348
0.0019523133
0.0019499164
0.0019498412
0.001949764
0.0019497198
0.0019497109
0.0019497373
0.0019497998
0.0019498761
0.0019522849
0.0019337057
0.0019315569
0.0019315247
0.0019314702
0.0019314321
0.0019314239
0.0019314477
0.0019314986
0.0019315465
0.0019336685
0.0019173677
0.0019155179
0.0019155155
0.0019155319
0.0019155715
0.0019155838
0.0019155517
0.0019155215
0.0019155059
0.0019172849
0.0019032349
0.0019019241
0.0019021236
0.0019025408
0.0019030206
0.0019031518
0.0019027983
0.0019023122
0.001901941
0.0019030948
0.0018917282
0.0018916301
0.001892771
0.0018949339
0.001897398
0.0018983494
0.0018962539
0.001893761
0.0018918929
0.0018915911
0.0018839439
0.0018866001
0.0018910595
0.0019024958
0.0018908699
0.0019005323
0.0019036966
0.0018952964
0.0018879044
0.0018841571
0.0018814303
0.001889589
0.0019046337
0.0019698598
0.0026923814
0.0033365412
0.0021869393
0.0019067174
0.0018945385
0.0018831349
0.0018847028
0.0019014986
0.0019896072
0.0065441549
0.019662186
0.02368801
0.013061351
0.0026773887
0.0019092136
0.0018899161
0.0018908155
0.00191339
0.0035986399
0.021804175
0.042010064
0.046707928
0.03329619
0.010583068
0.0020625061
0.0019012674
0.0018940375
0.0019673526
0.0093075761
0.034531319
0.053468631
0.057428597
0.045682135
0.021438281
0.0030450945
0.0019113584
0.0018916609
0.0022275669
0.015606763
0.040982044
0.05707785
0.060386576
0.050553563
0.028914214
0.005763556
0.0019310116
0.001886141
0.0029573063
0.020506328
0.043605758
0.057388227
0.06021006
0.051814721
0.033041142
0.0089476197
0.0020075209
0.0018807717
0.0043743962
0.023883477
0.044372548
0.056248687
0.058654318
0.051473168
0.035130417
0.012166399
0.0022333429
0.0018777124
0.0062787504
0.026083101
0.044241169
0.054514512
0.056578166
0.050401175
0.036140317
0.015044689
0.0027919386
0.0018787298
0.0081919163
0.027571441
0.043672673
0.052639181
0.054430154
0.049060268
0.036543786
0.017505468
0.0038452245
0.0019045643
0.0099208597
0.028590797
0.042919923
0.050829643
0.052403617
0.047681497
0.036601763
0.019421388
0.0053537625
0.0019744743
0.011569268
0.029273383
0.042118257
0.049167862
0.050567504
0.046369445
0.036466433
0.020883768
0.0069954106
0.0021309484
0.013197952
0.029732075
0.041353258
0.047688571
0.048943273
0.045180155
0.036254431
0.022020876
0.0085917902
0.0024366146
0.014719836
0.030104549
0.040674579
0.046385768
0.047514913
0.044129688
0.036056779
0.023004338
0.010109404
0.0029650639
0.01620891
0.030524454
0.040130831
0.045311397
0.046336217
0.04326653
0.035941051
0.023998981
0.011576552
0.001997361
0.001997135
0.0019971105
0.0019971086
0.0019971086
0.0019971087
0.0019971125
0.0019971591
0.001997332
0.0019735555
0.0019708385
0.0019706787
0.0019706458
0.0019706343
0.0019706662
0.0019707573
0.0019734798
0.001973567
0.0019522593
0.0019499174
0.0019498655
0.0019498508
0.0019498386
0.0019498662
0.0019499051
0.0019522856
0.0019522651
0.0019336466
0.001931552
0.0019315318
0.001931528
0.0019315207
0.0019315356
0.0019315596
0.0019336697
0.001933643
0.0019173097
0.0019155013
0.001915487
0.0019155014
0.0019155059
0.001915498
0.0019155185
0.0019172876
0.0019172832
0.0019031821
0.0019018622
0.001901914
0.001902059
0.0019021179
0.0019019978
0.0019019312
0.0019030997
0.0019031009
0.0018916813
0.0018914236
0.00189186
0.0018925965
0.0018928763
0.001892274
0.0018917309
0.0018915981
0.0018914643
0.0018838994
0.0018860136
0.0018878561
0.0018912629
0.0018923087
0.0018895472
0.0018871325
0.0018841661
0.0018833694
0.0018813797
0.0018882036
0.0018939793
0.0019046765
0.001906908
0.0019009458
0.0018918083
0.0018831448
0.0018802383
0.0018846314
0.0018986873
0.0019067952
0.0020314065
0.0021214247
0.0019353795
0.0019081265
0.0018899194
0.0018825786
0.0018907215
0.0019119593
0.002139655
0.0041984444
0.0053633535
0.0027886769
0.001936336
0.0019012471
0.0018878104
0.0018939229
0.0019337739
0.0036680375
0.010326764
0.012364607
0.0069165688
0.002241749
0.0019112547
0.0018907895
0.0018914352
0.002089388
0.0069907126
0.015989993
0.018447632
0.0116626
0.0033390478
0.0019305459
0.001888799
0.0018857431
0.0025377338
0.010233299
0.02021856
0.022675208
0.015727041
0.0054401276
0.0020061185
0.0018837521
0.0018805067
0.0035011483
0.013263415
0.023293407
0.025597334
0.018942339
0.0079459581
0.0022297049
0.0018785409
0.0018788802
0.0049921986
0.015916372
0.02548158
0.027557815
0.021467824
0.010181622
0.0027830962
0.0018755551
0.001886025
0.0067181814
0.018169201
0.026980757
0.028846744
0.023361787
0.012119256
0.0038291734
0.0018801806
0.0019253134
0.0083484357
0.019984895
0.027981639
0.029658436
0.024731716
0.013991033
0.0053307922
0.0019011357
0.0020267988
0.0098570594
0.021380078
0.028655271
0.030184329
0.025691071
0.015721998
0.0069700979
0.0019682571
0.0022433591
0.01133999
0.022451371
0.029119621
0.030521235
0.026408378
0.017231098
0.0085662424
0.0021129986
0.002657482
0.01280211
0.023315653
0.029473708
0.030745279
0.026994734
0.018524705
0.010084544
0.0023957509
0.0032909642
0.014266791
0.024242588
0.029821517
0.030937023
0.02760543
0.019765872
0.011552071
0.0028718305
0.0019973891
0.0019972663
0.0019971623
0.0019971405
0.0019971749
0.0019973264
0.0019736724
0.001973555
0.0019734864
0.0019708694
0.0019735005
0.0019735585
0.0019523357
0.0019523076
0.0019522796
0.0019499187
0.0019522738
0.0019522902
0.0019336967
0.0019337184
0.0019336914
0.0019315369
0.001933672
0.0019337033
0.001917331
0.0019174221
0.0019173975
0.0019154458
0.0019173516
0.0019173982
0.0019031455
0.0019034243
0.0019034319
0.0019016936
0.0019033116
0.0019033382
0.0018915078
0.0018923071
0.0018924641
0.0018909669
0.0018921441
0.0018920184
0.0018834249
0.0018855081