/*--------------------------------*- C++ -*----------------------------------*\
  =========                 |
  \\      /  F ield         | OpenFOAM: The Open Source CFD Toolbox
   \\    /   O peration     | Website:  https://openfoam.org
    \\  /    A nd           | Version:  8
     \\/     M anipulation  |
\*---------------------------------------------------------------------------*/
FoamFile
{
    version     2.0;
    format      ascii;
    class       volScalarField;
    location    "200";
    object      omega;
}
// * * * * * * * * * * * * * * * * * * * * * * * * * * * * * * * * * * * * * //

dimensions      [0 0 -1 0 0 0 0];

internalField   nonuniform List<scalar> 
72028
(
9.8512114
9.8563743
8.6192392
8.617742
7.6294349
7.6275415
6.8464696
6.844926
6.2128074
6.2116472
5.6921167
5.6913511
5.2605747
5.2603312
4.9027682
4.903427
4.6083796
4.6106713
4.3676503
4.3724417
4.1662995
4.1736121
3.9870045
3.9951486
3.8195253
3.8264367
3.6629687
3.6680969
3.5180984
3.5221354
3.3840069
3.3878985
3.2597227
3.264569
3.1445965
3.1547949
3.0445482
3.0590634
2.9699854
3.0027787
2.9341137
2.9892073
2.9568292
3.0147838
9.8530193
9.8429819
9.840624
9.8402289
9.8408748
9.8448708
9.856604
8.616498
8.4797516
8.4749383
8.4733009
8.4765113
8.6132384
8.616617
7.6280778
7.52338
7.5211216
7.5198573
7.5216851
7.627388
7.6276314
6.8456489
6.7606591
6.7590118
6.7577736
6.7593492
6.8451914
6.8453155
6.2124763
6.1418741
6.1400937
6.1386919
6.1405313
6.2118714
6.212273
5.6922935
5.6328885
5.6306884
5.6290294
5.6313575
5.691368
5.692193
5.2613836
5.2116181
5.2091525
5.2071966
5.2099867
5.2601474
5.2613447
4.9044271
4.8645925
4.8629323
4.8608226
4.8634422
4.9033365
4.904372
4.6110673
4.5835469
4.5860808
4.5845962
4.5843847
4.6115644
4.6108344
4.3712383
4.3591544
4.3675589
4.365746
4.3626493
4.3756842
4.370585
4.1702388
4.170068
4.1854383
4.1846847
4.1883169
4.1805353
4.168998
3.9905211
4.0014049
4.1173503
4.1961751
4.0287662
4.0049584
3.9888767
3.8218866
3.8523238
4.2022347
4.382915
4.0016014
3.838223
3.8202406
3.6641123
3.7885685
4.3964485
4.7245978
4.0635205
3.6848865
3.6625631
3.5186437
3.8009552
4.7012792
5.0794336
4.2316682
3.5489243
3.5168807
3.3845506
3.8982677
4.9825212
5.2706749
4.4856059
3.4616196
3.3823991
3.2616457
4.0748838
5.1240905
5.3012188
4.7154468
3.4681325
3.2575945
3.1480012
4.2812043
5.1077251
5.2028032
4.8278623
3.6073103
3.141929
3.0639664
4.4215406
4.9806039
5.0177249
4.8047438
3.8090258
3.0370363
3.0246673
4.4491914
4.7882423
4.8032828
4.6889053
3.9686196
2.9586186
3.0442578
4.3802583
4.57353
4.5817863
4.5187016
4.0326603
2.9289795
3.1256607
4.2549505
4.3715391
4.3774745
4.331629
4.0132891
2.9544071
9.8498547
9.8401483
9.8395935
9.8395725
9.8395766
9.8395757
9.8396424
9.8408451
9.8534481
8.6143124
8.4720277
8.4678115
8.4660204
8.4657099
8.4666815
8.4698064
8.4786102
8.6154217
7.6269336
7.5195542
7.5167844
7.5145806
7.514088
7.5155083
7.5185382
7.5230753
7.6269854
6.8446059
6.7579036
6.7555526
6.7534174
6.7528761
6.7543668
6.7570607
6.7604745
6.8445035
6.2115126
6.1390428
6.1355816
6.1325873
6.1318292
6.1339104
6.137568
6.1417067
6.211378
5.6914779
5.6295207
5.6243395
5.6199352
5.6188318
5.6218623
5.6271299
5.6328165
5.6912954
5.2609149
5.2078351
5.2016182
5.1963653
5.1950833
5.1986474
5.204872
5.2119054
5.2604982
4.9047131
4.8616557
4.8581566
4.8568908
4.8565612
4.8574139
4.8599558
4.8657443
4.9036074
4.6126976
4.5848344
4.5952905
4.5663115
4.5801328
4.6030992
4.5903287
4.5862023
4.6101624
4.3747481
4.3702151
4.4262606
4.9697669
5.219933
4.6536897
4.3939932
4.3641562
4.3700017
4.1756813
4.1940668
5.0433447
6.8819433
7.2716309
6.1163333
4.3893917
4.1799024
4.1684984
3.9972242
4.1722311
6.4061197
7.6996528
7.8715153
7.2949001
5.017466
4.0144819
3.9884299
3.8288004
4.4354515
6.9579132
7.5853491
7.6720152
7.390509
5.9541004
3.8711865
3.8196965
3.6708801
4.9908623
6.8982827
7.2831935
7.345445
7.151923
6.3670586
3.8384997
3.6617286
3.525633
5.4711661
6.66481
6.9317544
6.974237
6.8391352
6.327612
3.9258713
3.5158726
3.3944404
5.6364859
6.3617413
6.5354678
6.5614352
6.4772045
6.1212587
4.1322203
3.3813932
3.2794984
5.543351
6.0198582
6.1231022
6.13691
6.0895084
5.8628683
4.4135603
3.2570468
3.2166525
5.3400912
5.6656881
5.721874
5.7278141
5.7047019
5.571641
4.6450285
3.1439592
3.2550767
5.1137231
5.3223269
5.3471668
5.3476464
5.3412484
5.2725409
4.7286527
3.0454826
3.4125476
4.8797662
5.0007183
5.004131
5.0007488
5.0063011
4.9759432
4.6662152
2.9989945
3.5997412
4.6498078
4.7061253
4.6934983
4.6876438
4.7012601
4.6978706
4.5153682
3.0169598
3.7190561
4.4210496
4.4369764
4.4138985
4.406767
4.4251432
4.4415369
4.3392076
3.1120698
9.8530148
9.8401472
9.8395589
9.8395432
9.8395345
9.8395331
9.8395379
9.8395511
9.8395885
9.8411133
9.8509317
8.6164794
8.4720161
8.4663177
8.4638263
8.4628152
8.4626334
8.4631954
8.4647988
8.4687013
8.4796278
8.6175233
7.6280503
7.5195576
7.5151041
7.5111283
7.50893
7.5084803
7.5098092
7.5128711
7.5175801
7.5229523
7.6287242
6.8456188
6.7579103
6.7540371
6.7491831
6.745699
6.7449286
6.7471506
6.7515452
6.756265
6.7601727
6.8459907
6.2124466
6.1390485
6.1335209
6.1265897
6.1213002
6.1200708
6.1235402
6.1300079
6.1366012
6.1414713
6.2126009
5.692262
5.6295234
5.6213565
5.6112939
5.6036786
5.6018365
5.6068639
5.6162713
5.6258713
5.63271
5.69221
5.2613456
5.2078355
5.1980791
5.1866311
5.17998
5.1776432
5.1820803
5.1922671
5.2035113
5.2118273
5.2609593
4.9043792
4.861647
4.8567197
4.8600622
4.8242782
4.8404581
4.8560205
4.8568004
4.8594234
4.8653326
4.9033179
4.6110101
4.5848221
4.6067273
4.8404523
6.4479743
6.9724278
5.5298015
4.6150854
4.5928151
4.5847517
4.6086956
4.3711791
4.3702121
4.647262
7.8265624
9.4267215
9.6526665
8.9023989
6.0236595
4.37893
4.3606922
4.3670542
4.1702029
4.1938906
6.4623402
8.9018388
9.5145047
9.6295342
9.2824992
8.1752262
4.5762047
4.1735441
4.1643753
3.9905299
4.173981
7.5879237
8.5718227
8.9625625
9.0431885
8.8019389
8.2361704
5.7002411
4.0075645
3.9841873
3.8219322
4.4419564
7.5220339
8.1348883
8.4462306
8.5139539
8.3159234
7.8868236
6.59337
3.8375959
3.8164564
3.6641711
5.0027201
7.2421244
7.689055
7.9000621
7.9416556
7.8137893
7.509092
6.7228712
3.7476965
3.659853
3.5186977
5.4805234
6.9083311
7.1969572
7.3049125
7.3226689
7.2629756
7.0872232
6.5537
3.7413712
3.5150414
3.3845973
5.6424695
6.5295491
6.6869444
6.7192994
6.7210859
6.7088359
6.6344353
6.2984867
3.831781
3.3810617
3.2617403
5.5468929
6.1305873
6.1944572
6.1792298
6.1716727
6.1880523
6.1813746
5.9855289
4.0115006
3.2564517
3.1481977
5.3430549
5.7358298
5.7394216
5.6967764
5.6842859
5.7164012
5.7510599
5.6476575
4.2450464
3.1404334
3.0649804
5.1163036
5.3623757
5.3289133
5.2719089
5.2571704
5.2969655
5.3551358
5.3147974
4.4177196
3.0345402
3.0267892
4.8817016
5.0191828
4.9629936
4.8994903
4.8840084
4.9268153
4.9974136
5.0014693
4.4669779
2.9464048
3.0480045
4.6512947
4.7083615
4.6381259
4.5726824
4.5572917
4.6004523
4.6769236
4.7123884
4.4033188
2.888527
3.1309341
4.4219876
4.4281351
4.350787
4.2869105
4.2722812
4.3137154
4.3910072
4.4469908
4.2759179
2.8878581
9.8429818
9.8395933
9.8395431
9.8395261
9.8395177
9.8395161
9.8395203
9.8395322
9.8395552
9.8397084
9.8482468
8.4797499
8.467809
8.463825
8.4620838
8.4612664
8.461108
8.4615847
8.4627971
8.4653643
8.4707291
8.6149352
7.5233777
7.516782
7.511126
7.5071865
7.5048809
7.5043979
7.5058144
7.5089457
7.5137466
7.518251
7.6278173
6.7606544
6.7555493
6.7491813
6.7426707
6.7382427
6.7372654
6.7400818
6.7457495
6.7525512
6.7564648
6.8455647
6.1418651
6.1355747
6.126587
6.1164504
6.1088707
6.1071581
6.1120756
6.1214034
6.1314064
6.1373911
6.2123614
5.6328721
5.6243272
5.6112882
5.5967651
5.5854831
5.5829815
5.5905599
5.6037517
5.6182714
5.6276303
5.6921842
5.2115913
5.2015984
5.1866203
5.1759686
5.1656201
5.1601514
5.1770703
5.1780886
5.1945168
5.2058019
5.2616625
4.8645512
4.8581284
4.8600408
4.8911499
5.5937843
5.9944087
5.1330661
4.8257334
4.8561732
4.8599729
4.9060962
4.5834995
4.5953012
4.8410723
8.327074
10.204196
10.495636
9.5644664
6.3701102
4.5834192
4.5856991
4.6159336
4.3591405
4.4271483
7.8319624
10.187165
11.03722
11.210303
10.69112
9.4102957
5.3019122
4.3724918
4.3813652
4.1701432
5.0517961
8.9042778
9.9650214
10.567367
10.821321
10.366512
9.5001732
7.5958492
4.2127918
4.1855093
4.0013127
6.4211382
8.5729145
9.2936655
9.7783243
9.9996277
9.6564197
8.9514244
8.0247267
4.3388986
4.0066926
3.8536492
6.965991
8.1350517
8.7157763
9.1988149
9.3226522
8.9752743
8.4368143
7.7489301
4.7505496
3.8364087
3.7917123
6.9035905
7.6886096
8.0629857
8.3056715
8.3600463
8.2002305
7.8945539
7.4067823
5.3188625
3.6808533
3.8064188
6.6687869
7.1963516
7.3728229
7.4472654
7.4604347
7.4172367
7.3033779
7.0190614
5.6553766
3.5403672
3.9065216
6.36373
6.6864266
6.7248122
6.703936
6.6958061
6.7146548
6.7201962
6.5931206
5.7147887
3.4306318
4.0858179
6.0207156
6.1940872
6.1488966
6.0795792
6.0614672
6.1102341
6.1813594
6.1599023
5.579499
3.3692945
4.292276
5.6663497
5.7391984
5.6477649
5.5566077
5.534502
5.5958326
5.6994558
5.7431579
5.3639224
3.3875964
4.4306348
5.3230554
5.3288134
5.2142405
5.1155948
5.0925283
5.1574454
5.2746009
5.3563021
5.1268322
3.500382
4.4554596
5.0014249
4.9629789
4.8386742
4.7400132
4.7174717
4.7814706
4.9018033
5.0046424
4.8838934
3.6474198
4.3842928
4.706613
4.6381601
4.5118118
4.4168859
4.3955517
4.4564888
4.5744443
4.6883186
4.6486518
3.7627293
4.2573251
4.4373256
4.3508446
4.2286705
4.1407298
4.1212259
4.1771929
4.2881244
4.4049299
4.4167332
3.8062675
9.8511882
9.8406242
9.8395725
9.8395345
9.8395177
9.8395094
9.8395072
9.8395117
9.8395228
9.8395451
9.8396147
9.842494
8.6192046
8.4749399
8.4660201
8.4628137
8.4612658
8.460477
8.4603188
8.4607889
8.4619178
8.4640765
8.4692877
8.6120927
7.6294094
7.5211238
7.5145802
7.5089282
7.5048805
7.5024138
7.5018889
7.5034189
7.5067114
7.5115095
7.5180172
7.6272496
6.8464523
6.759013
6.7534162
6.7456968
6.7382426
6.7331195
6.7319855
6.7352478
6.7417734
6.7496699
6.7565776
6.8449871
6.2127969
6.140092
6.1325841
6.1212976
6.1088715
6.0997643
6.0977484
6.1035366
6.1149419
6.127246
6.1368346
6.2114902
5.6921101
5.6306823
5.6199289
5.6036751
5.585484
5.5714815
5.5693934
5.5760917
5.594814
5.6122014
5.6259775
5.6909226
5.2605685
5.2091416
5.1963546
5.1799727
5.1656173
5.1110095
5.1257054
5.1011159
5.1829197
5.1875383
5.2033478
5.2601122
4.9027598
4.8629157
4.8568791
4.8242672
5.5936175
8.0616662
8.5719605
7.0049537
4.954397
4.8613057
4.8584513
4.9048138
4.6083684
4.5860731
4.5663839
6.4515149
10.204625
11.409471
11.603867
10.985833
8.7973923
4.8201088
4.5885377
4.6163106
4.3676458
4.3675656
4.9738201
9.430391
11.0384
11.94141
12.10046
11.57602
10.37204
7.4499162
4.3795988
4.3855212
4.1663215
4.1852465
6.8925307
9.5172541
10.568349
11.614631
11.817377
11.415471
10.097254
8.7671484
4.6433011
4.1918695
3.9870601
4.1194678
7.7054188
8.9641644
9.7796284
10.733641
11.150469
10.643839
9.3969339
8.5044664
5.5274074
4.0184192
3.8196004
4.2073508
7.5884561
8.4466419
9.1994358
9.919725
10.048396
9.6058661
8.8030108
8.0825724
6.2782292
3.8610754
3.6630477
4.4048162
7.2849588
7.8998673
8.3058672
8.6113805
8.6737666
8.4806221
8.1113205
7.6504615
6.5018654
3.7472556
3.5181731
4.7113006
6.9324227
7.3046229
7.4473569
7.5160891
7.5281098
7.4885843
7.389403
7.1713624
6.4055687
3.7098366
3.3840791
4.9906862
6.5357678
6.719093
6.704032
6.6562593
6.6428019
6.6782677
6.7221651
6.6724628
6.1705768
3.8070707
3.2598106
5.1290524
6.1233108
6.1791392
6.0796973
5.9799907
5.9556853
6.0233267
6.135972
6.1875931
5.886221
4.0087771
3.1447302
5.1106719
5.7221036
5.6967943
5.556745
5.4376819
5.409813
5.4884898
5.6299335
5.7374828
5.5826741
4.2011842
3.0449278
4.9825157
5.3473545
5.2720099
5.115744
4.9930897
4.9650505
5.0448412
5.194567
5.3305366
5.2746675
4.3121317
2.970905
4.7896891
5.0043201
4.8996446
4.7401671
4.6212815
4.5945433
4.6710407
4.8188492
4.9672936
4.9748608
4.3249447
2.9358604
4.5746817
4.693707
4.5728648
4.4170379
4.3051345
4.2802745
4.3516806
4.4927213
4.6443539
4.6923628
4.2618918
2.9594859
4.3725633
4.4141217
4.2871021
4.1408743
4.0390501
4.0166639
4.0811758
4.2110002
4.3581813
4.4329957
4.1546107
9.8563843
9.8402292
9.8395766
9.8395331
9.839516
9.8395073
9.8395051
9.8395098
9.8395209
9.8395431
9.8396129
9.841453
8.6177543
8.473304
8.4657107
8.4626324
8.4611076
8.4603194
8.4601599
8.4606311
8.4617521
8.4638534
8.4687329
8.4811738
7.6275607
7.5198624
7.5140905
7.5084805
7.5043988
7.5018907
7.5013546
7.5029124
7.5062479
7.5110504
7.5174591
7.5232196
6.8449491
6.7577802
6.7528803
6.7449313
6.7372694
6.7319898
6.7308186
6.7341818
6.7408975
6.7490043
6.756098
6.7602844
6.2116736
6.1386994
6.1318356
6.1200774
6.1071672
6.0977568
6.0956709
6.1016721
6.1134449
6.1262691
6.1362263
6.1415123
5.6913775
5.6290384
5.6188424
5.6018484
5.582997
5.5694004
5.5675186
5.5743607
5.5923854
5.61078
5.625168
5.6325707
5.2603605
5.2072098
5.1951011
5.1776516
5.1601974
5.1256867
5.151364
5.1229794
5.174291
5.1861034
5.2024934
5.2112
4.9034568
4.8608421
4.8565873
4.8404367
5.9908364
8.5691225
9.0835433
7.5826678
5.0382252
4.8600732
4.858374
4.8636689
4.6107053
4.5846228
4.5801655
6.9699466
10.494539
11.603129
11.784684
11.206566
9.2241055
4.9602306
4.5906602
4.5814035
4.3724744
4.365781
5.2188658
9.6549089
11.213501
12.101409
12.223472
11.761033
10.544121
7.8803444
4.4054781
4.3547388
4.1736313
4.1846272
7.2714398
9.6360795
10.828234
11.823597
11.707364
11.727831
10.243323
8.9277868
4.8430624
4.1636627
3.9951404
4.1951243
7.8723629
9.0456558
10.004837
11.156821
10.905984
11.146648
9.7281768
8.5881994
5.9057107
3.9966364
3.8264064
4.3800917
7.6730271
8.5162635
9.3260278
10.050216
10.124756
9.7666546
8.8951063
8.1475452
6.5537297
3.8274813
3.6680641
4.72039
7.3464896
7.943685
8.362186
8.6749459
8.7318215
8.5466019
8.1594781
7.696162
6.6676567
3.7152746
3.522104
5.0757452
6.9752967
7.3242679
7.4618616
7.5288707
7.5400047
7.5031334
7.4053033
7.1975047
6.5118939
3.6643707
3.3878672
5.2680938
6.5623845
6.7223428
6.6968446
6.6433558
6.6287911
6.6680309
6.7192395
6.6834829
6.2466999
3.6793014
3.2645148
5.2994001
6.1377118
6.1726809
6.0622787
5.9561251
5.9305489
6.0022451
6.1232383
6.1885747
5.9370195
3.7680854
3.1546627
5.2015233
5.7284708
5.6851106
5.5351659
5.4101791
5.3811156
5.4634951
5.6126481
5.7324725
5.6153388
3.9243371
3.0587948
5.0167125
5.3482285
5.2578599
5.0930879
4.9653637
4.9362899
5.019243
5.175631
5.3221813
5.2920305
4.0805086
3.00216
4.8025011
5.0012642
4.8845984
4.7179541
4.594816
4.5672057
4.6463508
4.7997947
4.9571207
4.982192
4.1731781
2.9881618
4.5812738
4.6880976
4.5578062
4.3959746
4.280515
4.2549246
4.328541
4.4743252
4.6333162
4.6939647
4.1761439
3.0133494
4.377114
4.4071683
4.2727338
4.1215981
4.0168757
3.9938931
4.0602048
4.193916
4.3470644
4.4316275
4.1058716
9.8408749
9.8395756
9.8395378
9.8395203
9.8395117
9.8395097
9.8395141
9.8395256
9.8395487
9.839624
9.843196
8.4765146
8.466683
8.4631956
8.4615857
8.4607901
8.4606317
8.4611002
8.4622506
8.4645419
8.4703159
8.6128207
7.5216918
7.5155128
7.5098125
7.5058185
7.5034232
7.5029148
7.5043914
7.5076049
7.5123904
7.5188061
7.6272939
6.7593598
6.7543757
6.7471593
6.7400921
6.7352583
6.734188
6.7372601
6.7434204
6.7508817
6.7571961
6.8448913
6.1405458
6.1339258
6.1235575
6.112096
6.1035565
6.1016842
6.1071426
6.1176763
6.129018
6.137676
6.2113483
5.631378
5.6218879
5.6068934
5.5905928
5.5761171
5.5743729
5.5827252
5.598507
5.6147922
5.6272328
5.6907059
5.2100186
5.1986884
5.1821187
5.1771234
5.1010644
5.1228294
5.1579232
5.1769212
5.1905299
5.204913
5.2596183
4.8634904
4.8574648
4.8560527
5.1311705
6.9986332
7.5782911
5.9662201
4.8652202
4.8574342
4.8597545
4.9035586
4.5844444
4.603145
5.5248574
9.5608087
10.983296
11.204763
10.501239
7.8856439
4.6533886
4.5889594
4.6135355
4.362704
4.651837
8.901483
10.694326
11.574946
11.760295
11.218338
10.02769
6.5615035
4.3938739
4.3806179
4.1881469
6.1046363
9.284596
10.374863
11.419366
11.727834
11.225528
9.8558827
8.3991682
4.3940075
4.1869921
4.0276539
7.2879735
8.8052012
9.6615923
10.648801
11.146469
10.543203
9.208748
8.3370391
4.9189392
4.009942
3.9978409
7.3882202
8.3191393
8.9788737
9.6076618
9.7662366
9.3268535
8.648219
7.9574939
5.7005019
3.8499399
4.0564591
7.1505256
7.8168349
8.202718
8.4817211
8.547043
8.3639932
8.0243233
7.5599199
6.1250701
3.7052606
4.2212251
6.8388892
7.2655544
7.4190978
7.4894773
7.5036348
7.4628636
7.3585035
7.1167248
6.1896396
3.6172439
4.4728846
6.4776738
6.7109206
6.7161119
6.6790494
6.6684897
6.6974926
6.7258221
6.6466912
6.0280189
3.6203088
4.7045516
6.0901501
6.1897258
6.1114162
6.0240223
6.0026501
6.0627679
6.1583945
6.1817416
5.7823238
3.7569025
4.8209765
5.7053019
5.7177378
5.5968157
5.4891106
5.4638491
5.5355392
5.6614965
5.7440871
5.5076043
3.9581243
4.8007939
5.3417955
5.2980352
5.1582781
5.0453965
5.019553
5.0933363
5.2297702
5.3443806
5.2287456
4.1266174
4.6865505
5.0068117
4.9276876
4.7821875
4.6715386
4.6466235
4.7180685
4.8546956
4.9852022
4.9491359
4.200417
4.517114
4.7017224
4.6011837
4.4571154
4.3521281
4.3287825
4.3959557
4.5276171
4.6643839
4.6812626
4.1812249
4.3305495
4.4255698
4.3143419
4.1777428
4.0815745
4.0604181
4.1214763
4.2436298
4.3788079
4.4306702
4.1003374
9.8448708
9.8396424
9.839551
9.8395322
9.8395228
9.8395209
9.8395256
9.8395388
9.8395633
9.8398573
9.8515517
8.6132354
8.4698091
8.4648006
8.4627993
8.4619206
8.4617545
8.4622522
8.4635812
8.4666264
8.4751448
8.6151811
7.6273816
7.5185441
7.5128772
7.5089526
7.5067184
7.5062535
7.5076082
7.510664
7.5155038
7.5213021
7.6272754
6.8451834
6.7570713
6.7515577
6.7457645
6.741789
6.7409101
6.7434273
6.7485149
6.7544306
6.7591941
6.8449896
6.2118625
6.1375858
6.1300302
6.1214305
6.1149704
6.1134685
6.1176901
6.1256237
6.1340524
6.1403835
6.2119189
5.6913608
5.6271594
5.6163071
5.6037919
5.5948567
5.5924216
5.5985292
5.6098888
5.6221125
5.6311704
5.6918344
5.2601503
5.2049182
5.1923153
5.1781189
5.1829691
5.1742975
5.176942
5.1848766
5.1989706
5.209887
5.2611505
4.9033603
4.8600172
4.8568447
4.8255307
4.9534133
5.036645
4.8649689
4.855878
4.8571715
4.86382
4.9048365
4.611611
4.5903841
4.6148351
6.3632689
8.7917262
9.2173605
7.8789656
4.9584106
4.6047385
4.5859594
4.6129566
4.3757277
4.3939524
6.0172671
9.4095041
10.370825
10.541932
10.024652
8.2617273
4.5783503
4.3674489
4.3756272
4.1805227
4.3873091
8.1735312
9.5020673
10.096745
10.241938
9.8546043
9.0424996
6.0616562
4.1970352
4.1774067
4.0048481
5.0067495
8.2372249
8.953324
9.3967607
9.7276094
9.208554
8.6532387
7.3615257
4.0543384
3.999058
3.8380324
5.9403109
7.8882064
8.4379316
8.8027999
8.8954319
8.6489461
8.1982564
7.4204784
4.0762394
3.8301666
3.684522
6.3581834
7.5104796
7.8952685
8.1111976
8.1601611
8.0253365
7.7344935
7.1756908
4.2269902
3.6719088
3.5484848
6.3221426
7.0885017
7.3040139
7.3895342
7.4060718
7.3594704
7.2234145
6.8612006
4.5115911
3.5266242
3.4593028
6.1164261
6.6356204
6.7208489
6.7224993
6.7199805
6.7266317
6.6988742
6.4959028
4.8515262
3.395308
3.4620407
5.859417
6.1824007
6.182036
6.1364253
6.1239148
6.1590447
6.1967383
6.1078796
5.06967
3.2790599
3.5969648
5.5699197
5.7519344
5.7001406
5.6304464
5.6132504
5.6620082
5.7357103
5.7222008
5.0962995
3.2140629
3.7969714
5.2717881
5.3559066
5.2752771
5.195101
5.1761623
5.2301688
5.3216503
5.3560509
4.9810387
3.2278586
3.9577596
4.9756717
4.9981104
4.9024554
4.8193786
4.8002641
4.8550091
4.9536865
5.0174969
4.7919813
3.3502381
4.0243127
4.6976357
4.6775544
4.5750608
4.4932301
4.4747428
4.5278707
4.6276845
4.7097046
4.5828415
3.5052595
4.0076953
4.4413568
4.3915752
4.2886946
4.2114744
4.1942868
4.2438408
4.3399733
4.4315514
4.3858662
3.6100862
9.8566194
9.840845
9.8395886
9.8395552
9.8395451
9.8395432
9.8395488
9.8395633
9.8396496
9.8423242
8.6166231
8.4786133
8.4687055
8.4653682
8.4640801
8.4638571
8.4645458
8.466626
8.4707992
8.6124637
7.6276485
7.5230817
7.5175885
7.5137554
7.511518
7.5110586
7.5123979
7.5155042
7.5189448
7.6279367
6.8453396
6.7604856
6.7562794
6.7525679
6.7496874
6.7490208
6.7508963
6.7544385
6.7573647
6.8457243
6.212304
6.1417234
6.1366244
6.1314347
6.1272768
6.1262985
6.1290428
6.1340653
6.1383889
6.2120853
5.6922313
5.6328411
5.6259055
5.6183123
5.6122466
5.6108254
5.6148307
5.6221315
5.628721
5.6911193
5.2613932
5.2119409
5.2035547
5.1945619
5.1875848
5.1861574
5.1905807
5.1989994
5.2069895
5.259341
4.9044333
4.8657908
4.8594633
4.8561919
4.8613067
4.8600971
4.8574496
4.8572052
4.8611077
4.90199
4.6109031
4.5862457
4.5928259
4.5831776
4.8186163
4.95715
4.6521196
4.6047649
4.5852684
4.6100814
4.3706389
4.3641659
4.3787753
5.3005982
7.4466193
7.8696364
6.5449109
4.5768534
4.3726914
4.3747921
4.1690049
4.1798414
4.5752829
7.5966791
8.7661377
8.9242101
8.3908167
6.0497748
4.2010522
4.1813158
3.9888172
4.0144738
5.6996608
8.0258163
8.5040728
8.5869037
8.3343592
7.3541571
4.2514233
4.0090594
3.820136
3.8704534
6.5934739
7.7502031
8.08186
8.1471493
7.9567839
7.4168819
4.6935064
3.8456168
3.6624452
3.8366465
6.724108
7.4068361
7.6496216
7.6963373
7.5604251
7.1730967
5.3786867
3.6979033
3.5167685
3.9222235
6.5552667
7.0188691
7.1707572
7.1979589
7.1175498
6.8600683
5.7695596
3.573567
3.3822983
4.1264684
6.2999382
6.5930601
6.6721593
6.68406
6.6475895
6.4952245
5.8093362
3.520498
3.2574908
4.4066588
5.9864672
6.1599745
6.1875651
6.1891722
6.1825742
6.1073329
5.6412946
3.589909
3.1417773
4.6390977
5.6484451
5.743415
5.7376599
5.7330289
5.7447555
5.7217519
5.4186552
3.791473
3.0368491
4.7244223
5.3155304
5.3567303
5.330842
5.3226958
5.3448802
5.3558157
5.1762437
4.0224403
2.957286
4.663612
5.0022002
5.005161
4.9676723
4.9575966
4.9855872
5.0173808
4.9259716
4.1766067
2.926291
4.5137235
4.7130165
4.6888558
4.6447681
4.6337535
4.6646951
4.7096177
4.6738354
4.2123707
2.949842
4.3381964
4.4475546
4.405449
4.3586018
4.3474619
4.3790724
4.4314751
4.4337967
4.1551304
9.8534474
9.8411138
9.8397085
9.8396148
9.8396129
9.839624
9.8398574
9.8423206
9.8519082
8.6154116
8.4796325
8.4707352
8.469292
8.4687374
8.4703208
8.4751455
8.6124282
8.6157546
7.6269709
7.5229612
7.5182609
7.5180254
7.5174682
7.5188163
7.5213079
7.6279241
7.6270748
6.8444903
6.7601878
6.7564821
6.7565934
6.756115
6.7572149
6.7592077
6.8457182
6.8445357
6.2113703
6.1414936
6.1374187
6.1368618
6.1362547
6.1377063
6.1404062
6.2120864
6.2113422
5.6912945
5.6327394
5.6276683
5.6260173
5.6252102
5.6272766
5.6312039
5.6911291
5.6911283
5.2605041
5.2118625
5.2058443
5.2033946
5.2025496
5.2049717
5.2099351
5.2593594
5.2600371
4.9036192
4.8653673
4.8600032
4.8584846
4.8584277
4.8598221
4.8638805
4.9020183
4.9025087
4.6101752
4.5847674
4.5856929
4.5885149
4.5906392
4.5890171
4.5860093
4.6101187
4.6078717
4.3699998
4.3606839
4.372458
4.3793647
4.4047887
4.3939
4.367426
4.374826
4.3659973
4.1684727
4.1735435
4.2127585
4.6431114
4.8362851
4.3895227
4.196856
4.1813185
4.1629528
3.9883844
4.0075903
4.340695
5.5281858
5.8928382
4.9041476
4.0528648
4.0089872
3.982543
3.8196414
3.8376779
4.7565536
6.2784879
6.544895
5.6813479
4.0710145
3.8454709
3.8148219
3.6616691
3.7482459
5.3261778
6.5021907
6.6625329
6.1113633
4.2168512
3.697603
3.6582983
3.515808
3.7426214
5.6595614
6.4065493
6.5090363
6.1799073
4.4969479
3.5728685
3.5133859
3.3813241
3.8338929
5.7176581
6.1714027
6.2449172
6.0217327
4.8366036
3.5189347
3.3792242
3.2569714
4.0141282
5.5821064
5.8865961
5.9359193
5.7779407
5.0588253
3.5862806
3.2546893
3.1438482
4.2474347
5.3666332
5.5827839
5.6146223
5.5048651
5.0899101
3.7861141
3.1386104
3.0452378
4.4192153
5.1292368
5.2747013
5.2917181
5.2271152
4.9770714
4.0166899
3.0340805
2.998321
4.4678333
4.8859907
4.9749941
4.9820586
4.9482442
4.7889844
4.171729
2.9481706
3.0156413
4.4039629
4.6499232
4.6926054
4.6939076
4.6806889
4.5804543
4.2088703
2.8940387
3.1100479
4.2767349
4.4176528
4.4332741
4.4316219
4.4302809
4.3838887
4.1527716
2.9000553
9.8510079
9.8482471
9.8424942
9.8414528
9.8431958
9.8515518
8.6175978
8.6149465
8.6120958
8.4811769
8.6128254
8.6152077
7.628808
7.62784
7.6272564
7.5232264
7.6273042
7.6273249
6.846078
6.8456007
6.8449999
6.7602975
6.8449096
6.8450586
6.21269
6.2124102
6.2115121
6.1415344
6.2113784
6.2120046
5.6922992
5.6922446
5.6909545
5.6326033
5.6907472
5.6919326
5.2610464
5.2617312
5.260152
5.2112454
5.2596704
5.2612595
4.9033935
4.9061606
4.9048502
4.8637215
4.9036218
4.9049586
4.6087451
4.6159774
4.6163266
4.5814427
4.6135977
4.6130831
4.3670674
4.3813771
4.3855082
4.3547315
4.3806361
4.3757302
4.1643612
4.1855206
4.1918488
4.1636104
4.1869524
4.1774339
3.9841726
4.0067299
4.0183967
3.9963838
4.009755
3.9989901
3.8164578
3.8364746
3.8610738
3.8272823
3.8494757
3.8300377
3.6598645
3.6809718
3.7474805
3.7139403
3.7043129
3.671755
3.5150514
3.5405282
3.7104604
3.66196
3.614376
3.5264447
3.3810627
3.4312102
3.8081536
3.6753088
3.6136324
3.3949616
3.2564522
3.3704945
4.0095951
3.7620128
3.7458479
3.2783055
3.1404451
3.3899968
4.2015732
3.9164839
3.9456941
3.2111236
3.0346086
3.503639
4.3123496
4.0720485
4.1158409
3.2211884
2.9466313
3.6506097
4.3252225
4.1660994
4.1923961
3.3399303
2.8890721
3.7654202
4.2621977
4.1709839
4.1755449
3.4945585
2.8888531
3.80844
4.1548471
4.1022823
4.0963696
3.6013546
9.851008
9.8515518
8.9075246
8.9038806
9.8482471
9.8431956
8.9025853
8.8982094
9.856513
8.910181
8.9089412
9.8424941
9.8414533
8.8970932
9.050153
9.8512123
8.9089778
8.9101771
9.8414527
9.8424945
9.0501478
8.8970905
9.8431959
9.848247
8.8982104
8.9025835
9.8515518
9.8510079
8.9038799
8.9075242
2.8844922
3.592956
2.9235294
3.5965169
3.8001001
4.0929179
3.7750212
4.0233696
3.0139145
3.0061543
3.0579692
4.151075
4.0994989
4.0616168
4.1367961
2.9606739
3.0589845
3.010892
4.1012163
4.1536286
4.1371941
4.0635693
4.0960522
3.8078512
4.0257189
3.7811048
3.6017562
2.8892814
3.6033904
2.930411
9.8519119
8.9056038
9.8566041
8.9070113
9.8534554
9.8423332
8.9048449
8.897134
8.9070108
9.8423312
9.8534388
8.8971223
8.9048334
9.8519119
8.9056058
2.8721967
2.9125668
2.9492121
2.9952526
3.107171
4.1489857
3.1862624
4.0917447
3.0019792
4.1531987
3.112607
4.0945446
3.1920785
2.8746071
2.916145
9.8534309
8.9048229
9.8566192
9.8423294
8.907013
8.8971023
8.9048366
9.84233
9.8566192
8.8970992
8.9070116
3.108328
3.187255
2.9522638
4.1515288
2.9992608
4.0933861
3.1912277
4.1521101
2.9531219
4.0937487
3.0003465
9.8509317
8.9074567
9.8515516
8.9038641
8.907456
9.8515517
8.9038608
2.8876049
2.9278608
3.5990647
3.601216
2.928355
3.6001709
3.6022689
9.8482464
8.9025809
9.8431957
8.8982115
8.9025788
9.8431953
8.8982083
10.82341
9.9619606
10.186178
11.419173
11.721777
10.741761
11.171629
10.689769
10.18695
9.9589919
11.719093
11.411935
11.170647
10.734839
10.000559
9.3214156
9.5285073
10.648551
11.138546
10.065337
10.386458
9.7743518
9.5287186
9.317776
11.137894
10.642968
10.387687
10.062095
3.8057996
3.7794645
4.0951926
4.0251055
3.7799
4.096843
4.026316
9.8424938
8.9101443
8.8970944
9.8565123
9.8414534
8.9089549
9.0501542
9.8511882
8.8970913
8.9101428
9.8414532
9.8565124
9.0501519
8.9089532
11.612066
11.178156
10.774868
11.706091
11.8239
10.931521
11.186029
10.568525
10.736389
9.962251
11.727531
10.830683
11.179376
10.192549
10.649089
9.3216546
10.065706
10.004575
11.144323
9.5317113
10.391429
11.151088
10.262285
10.529776
11.156803
10.905694
10.533341
10.55644
10.727787
10.530253
10.25934
10.905625
11.157889
10.556442
10.532364
9.7784596
10.063153
9.3213538
11.146126
10.005541
10.389881
9.5318824
4.1530007
3.0093226
4.0631188
3.0140207
4.1006218
3.0579986
4.1369918
2.9622224
4.0643304
3.0130069
4.1040936
3.0192199
4.1395693
3.0641598
9.8414528
8.9089874
9.0501495
9.8511894
9.842494
8.9101409
8.8970935
9.8563843
9.0501484
8.9089859
9.8424943
9.8511894
8.8970894
8.9101395
11.144407
9.5312189
10.389665
9.7806247
10.64925
9.3230518
10.06624
10.906036
10.532337
10.557163
10.733769
11.158353
10.262604
10.534673
11.1585
10.557596
10.535747
11.158844
10.74969
10.53522
10.273012
10.006768
10.393897
9.5336423
10.664147
9.7862412
10.076192
9.3275747
4.0991972
3.0573336
4.1366536
2.9567145
4.1511021
3.0059103
4.0616462
3.0200969
4.1400037
3.065044
4.1574346
2.9662137
4.0665246
3.0179152
9.843195
8.8982132
9.8482468
8.9025808
8.8982094
9.8482469
8.9025767
11.724828
10.741517
11.17887
10.568402
10.828937
9.9625623
10.191826
11.430182
11.179525
10.756511
10.830111
10.57532
10.193077
9.9697755
11.145955
10.065568
10.39248
9.7794163
10.005134
9.3215465
9.5326074
10.663767
10.392271
10.076357
10.006343
9.7860026
9.5329971
9.3283735
4.093008
4.0234461
3.8004765
3.7753116
4.028979
3.8147612
3.7865611
9.8515518
8.9038651
9.8509317
8.9074569
8.9038629
9.8509317
8.9074548
3.5934698
3.5969011
2.8849423
2.9240922
3.609954
2.8938007
2.9367358
9.8423307
8.9070136
8.8971259
9.853439
8.9048444
9.8566195
8.8972652
8.9070135
9.8534443
8.9051477
4.1497429
2.9960972
4.0922898
3.1085395
3.1877496
2.9599133
4.0947592
3.0088286
3.1261759
3.1906947
9.8519115
8.9056053
9.8423297
8.904829
8.8970997
9.8566039
8.9070117
9.8534229
8.8972297
8.9051049
9.8566038
8.9070132
8.9056588
2.8729969
2.9137582
4.1526166
3.1891051
4.0941772
2.9536454
3.0009998
3.1249282
4.0930916
3.1892001
2.9558622
3.0035158
2.9408069
9.8515518
8.9075258
8.9038805
9.8431959
8.9025872
8.8982102
9.8414532
8.8970944
9.0501534
9.8512113
9.8565129
8.9101806
8.9089415
9.8424942
9.0501495
8.8970931
9.8563743
9.8512123
8.9089781
8.9101779
9.8482471
8.8982129
8.9025856
9.8510079
8.9038829
8.9075254
3.6020393
2.9297573
3.6036681
4.0971451
3.7816159
4.0266275
4.1032955
4.064583
4.1386911
2.9621253
3.0171479
3.0127592
3.0617212
4.1539427
4.1384577
4.0638522
3.0167121
2.9607377
3.0611714
3.0110715
3.8067768
4.0259976
3.7803088
2.8896813
3.6031479
2.9309275
9.5425896
9.8506079
9.5413212
9.855421
9.5451077
9.8571622
9.5440034
9.8531745
9.5441099
9.8537481
9.546102
9.5423528
9.8564541
9.5442371
9.8511978
9.5412757
9.8518908
9.5446717
9.5413947
9.8567036
9.5410251
9.8555041
9.5414973
9.8524711
9.8448708
8.9059809
8.8995712
9.8411148
9.8398578
9.0462866
9.0406493
9.8530194
8.8995712
8.905979
9.8398578
9.841114
9.0406463
9.0462821
9.5448703
9.8518321
9.5434458
9.8522367
9.542527
9.5412698
9.8543373
4.0072672
3.1947568
3.9570792
4.2740729
4.3822125
4.1951098
4.2899793
3.1339752
3.9613592
3.2032968
4.3841402
4.276725
4.2908038
4.1968242
9.5415301
9.8524953
9.8408466
8.9023892
9.0444253
9.8408435
9.8396437
9.0444038
9.036969
9.8498546
9.0444061
8.9023952
9.8396436