/*--------------------------------*- C++ -*----------------------------------*\
  =========                 |
  \\      /  F ield         | OpenFOAM: The Open Source CFD Toolbox
   \\    /   O peration     | Website:  https://openfoam.org
    \\  /    A nd           | Version:  8
     \\/     M anipulation  |
\*---------------------------------------------------------------------------*/
FoamFile
{
    version     2.0;
    format      ascii;
    class       volScalarField;
    location    "200";
    object      p;
}
// * * * * * * * * * * * * * * * * * * * * * * * * * * * * * * * * * * * * * //

dimensions      [0 2 -2 0 0 0 0];

internalField   nonuniform List<scalar> 
72028
(
0.28241813
0.27808497
0.27751071
0.27740261
0.27508265
0.27511341
0.2705806
0.27063036
0.2627166
0.26279182
0.24957858
0.24969233
0.22836713
0.22852995
0.19549694
0.19570275
0.14754791
0.14773388
0.084014001
0.084023674
0.011915795
0.01156511
-0.052508244
-0.053167071
-0.093334606
-0.093959378
-0.10739139
-0.10774958
-0.10229469
-0.10238243
-0.087386568
-0.087332864
-0.069635452
-0.069610042
-0.052781838
-0.052717231
-0.038220633
-0.038137902
-0.026182249
-0.026035147
-0.016265217
-0.016136305
-0.0077509294
-0.0074957935
0.27847482
0.27851372
0.27897039
0.27913729
0.27887467
0.27838954
0.27753015
0.2772881
0.27786893
0.27851151
0.2786924
0.27824159
0.27764912
0.2773172
0.27491201
0.27560997
0.27652199
0.27677941
0.27612394
0.27544511
0.27491277
0.27031818
0.27125979
0.27266818
0.27306005
0.2720421
0.27111653
0.27029706
0.26229779
0.26363006
0.26582094
0.26642984
0.26483553
0.26351718
0.26224463
0.24892647
0.25070147
0.2539885
0.25490357
0.25249619
0.2507338
0.24882919
0.2274188
0.22939268
0.23395493
0.23522793
0.23186873
0.22991183
0.22727422
0.1942835
0.19548351
0.2009244
0.20244248
0.19842237
0.19728587
0.19412307
0.14634548
0.14451737
0.1490681
0.15031275
0.14697834
0.14906243
0.14626726
0.083434103
0.075123059
0.07515069
0.075059194
0.07518437
0.084241465
0.083619476
0.01255214
-0.0041063169
-0.012093473
-0.014802522
-0.0081942676
0.0098413396
0.013153298
-0.050924562
-0.071565433
-0.085382706
-0.089890131
-0.078768139
-0.05653972
-0.049996808
-0.09181349
-0.10852002
-0.12072139
-0.12392956
-0.11528709
-0.09754928
-0.090884362
-0.10651717
-0.11561601
-0.12185735
-0.12332422
-0.11917097
-0.11042725
-0.10584454
-0.10196283
-0.1043437
-0.10620182
-0.10611832
-0.10553974
-0.10385126
-0.10163426
-0.087396557
-0.085658578
-0.084565327
-0.083763526
-0.085294111
-0.087869623
-0.087348676
-0.069737024
-0.066063678
-0.063840401
-0.062954264
-0.064986406
-0.069398102
-0.069857275
-0.052846276
-0.048625611
-0.046383541
-0.045682652
-0.047476843
-0.052106356
-0.053035334
-0.038259473
-0.034241253
-0.032339504
-0.031880282
-0.033268627
-0.037425127
-0.038451101
-0.026209253
-0.022678653
-0.021195376
-0.020946276
-0.021936009
-0.025400004
-0.026378488
-0.016289961
-0.013359995
-0.012284205
-0.012136832
-0.012810354
-0.015600902
-0.016433303
-0.0077107361
-0.0055953429
-0.0050850828
-0.005073612
-0.0053494582
-0.0074215321
-0.0077929955
0.27804166
0.27910166
0.28050136
0.28163801
0.28200409
0.28143527
0.28019574
0.27884207
0.27792484
0.27737671
0.27878411
0.28060511
0.28199911
0.28232764
0.28143148
0.27973954
0.27802791
0.27726812
0.27508511
0.27686725
0.2794665
0.28150388
0.28199034
0.28065852
0.27820343
0.27581117
0.27490066
0.27058545
0.27317047
0.277198
0.28041318
0.28118648
0.2790586
0.27521253
0.27153785
0.27026747
0.26271279
0.26656192
0.27288432
0.27803698
0.27928714
0.27584156
0.26973099
0.26401462
0.26218429
0.2495486
0.25502037
0.26464826
0.27272892
0.27471824
0.26924919
0.25978819
0.25120735
0.24871911
0.2282898
0.23522742
0.24886601
0.26079038
0.26379392
0.25559951
0.24189216
0.22999586
0.22709111
0.19538003
0.20217643
0.21889959
0.23434085
0.23835852
0.22755374
0.210224
0.1960838
0.19384854
0.14748474
0.14976015
0.16428743
0.17849284
0.18226897
0.17232769
0.15665649
0.14493643
0.14591685
0.084207906
0.07461804
0.073640867
0.067553053
0.065382664
0.071246217
0.07475566
0.075208548
0.083272723
0.012448372
-0.014379208
-0.046023391
-0.082554638
-0.09244572
-0.065514753
-0.027881022
-0.0045182955
0.012937955
-0.052053333
-0.089311229
-0.13574997
-0.18206712
-0.19443138
-0.16160009
-0.11112685
-0.072631541
-0.050030996
-0.093470258
-0.12477068
-0.16017891
-0.19177674
-0.20015664
-0.17859949
-0.14206322
-0.10991129
-0.090823946
-0.10804718
-0.1247172
-0.14250739
-0.15653033
-0.15978762
-0.15108475
-0.13360174
-0.11706253
-0.10579646
-0.10303346
-0.10702789
-0.11185273
-0.11404904
-0.11458167
-0.11360425
-0.10958028
-0.10556753
-0.10160146
-0.087947871
-0.08439322
-0.082330512
-0.079597764
-0.079122782
-0.080918357
-0.083669312
-0.086395471
-0.087333825
-0.069889595
-0.063374367
-0.058542437
-0.054517918
-0.053664274
-0.05626614
-0.061295132
-0.06643104
-0.06985123
-0.052817586
-0.045923894
-0.040574227
-0.036662954
-0.035793827
-0.038325203
-0.043475569
-0.048766517
-0.052998512
-0.038085693
-0.031947237
-0.027091031
-0.023803862
-0.023090534
-0.025198336
-0.029537591
-0.03427007
-0.038383043
-0.026018741
-0.020826761
-0.016904323
-0.01434586
-0.013798055
-0.015423306
-0.018789918
-0.0226664
-0.026317851
-0.016041636
-0.011952476
-0.0091084604
-0.0072099725
-0.0068019316
-0.0080111609
-0.010465518
-0.013325878
-0.016340303
-0.00759636
-0.0051077768
-0.0034730155
-0.0022383675
-0.0019677239
-0.0027657703
-0.0042723324
-0.0057110884
-0.0076046234
0.27845351
0.27909754
0.28123903
0.2836853
0.28555667
0.28614264
0.28521655
0.2831437
0.28070873
0.27878274
0.28077356
0.2772764
0.27877993
0.28160805
0.28468652
0.2869062
0.28741079
0.28599986
0.28323821
0.28016086
0.27786644
0.27741194
0.27490425
0.27686344
0.28090441
0.2854306
0.28876354
0.28952623
0.28738496
0.28326749
0.27879993
0.2755782
0.27497003
0.27031143
0.27316758
0.27943003
0.28665654
0.29213246
0.29339905
0.28983694
0.28314817
0.27612279
0.27117476
0.27037495
0.26229357
0.26656091
0.27640572
0.28816748
0.2973962
0.29956702
0.29347657
0.28237466
0.27113859
0.26345156
0.26235506
0.24892742
0.25502281
0.27005801
0.28892685
0.30445729
0.30819867
0.29776619
0.27947942
0.26189755
0.25037489
0.2489857
0.22742984
0.23524074
0.25662703
0.28538048
0.31071724
0.31703802
0.29960369
0.27068756
0.24482466
0.22886788
0.22748586
0.19431113
0.20220715
0.22860318
0.26762686
0.3052868
0.31503513
0.28842085
0.24717503
0.21373799
0.19477608
0.194382
0.1463988
0.14982144
0.1730485
0.21008125
0.23612701
0.24050606
0.22656034
0.19086395
0.15963562
0.14385302
0.14652694
0.083514185
0.074712795
0.072659171
0.047016215
0.0041924919
-0.0041217777
0.0238925
0.06486444
0.074697467
0.075077359
0.083783055
0.01264419
-0.014268488
-0.066487349
-0.1761034
-0.27082845
-0.29128825
-0.2311743
-0.1158294
-0.034155447
-0.0030369537
0.013120812
-0.050851082
-0.089255508
-0.16695588
-0.28800015
-0.3829464
-0.40349079
-0.34280239
-0.22796638
-0.12068904
-0.069853402
-0.050227051
-0.091781359
-0.12482566
-0.18482738
-0.25399582
-0.3036119
-0.31592232
-0.28300347
-0.22147163
-0.15039385
-0.10712364
-0.091201658
-0.10652829
-0.12486658
-0.15434893
-0.17873632
-0.19536601
-0.19951976
-0.18868372
-0.1675477
-0.13838495
-0.11503372
-0.10612354
-0.10201193
-0.10724079
-0.11409805
-0.11673432
-0.11839076
-0.11892988
-0.11790871
-0.11569431
-0.11134858
-0.10454943
-0.10178826
-0.087462126
-0.084585346
-0.080459785
-0.074541938
-0.070787726
-0.070075276
-0.072452773
-0.077350919
-0.083432373
-0.086137141
-0.087406157
-0.069803443
-0.063518982
-0.055494847
-0.047403494
-0.042378727
-0.041363435
-0.044502503
-0.051175113
-0.060054487
-0.066553128
-0.069863284
-0.052903745
-0.046018641
-0.037552794
-0.029872677
-0.025143086
-0.024171672
-0.027112812
-0.033446601
-0.041999537
-0.04902016
-0.05301579
-0.038308059
-0.032007351
-0.024543123
-0.018126573
-0.014183814
-0.013368957
-0.015816206
-0.021108958
-0.028304082
-0.03457165
-0.038437802
-0.026253462
-0.020863542
-0.014914778
-0.0098910824
-0.0067604658
-0.0061152038
-0.0080517733
-0.012234653
-0.017843204
-0.02291441
-0.026388228
-0.016326661
-0.01197671
-0.0076400608
-0.0038373512
-0.0014471107
-0.00094873958
-0.0024330556
-0.0056109572
-0.0098004914
-0.013529433
-0.016460178
-0.0077311209
-0.0051123359
-0.0025347546
8.9830075e-05
0.0018487234
0.0022264918
0.0011164857
-0.0011565697
-0.0039052246
-0.0057098096
-0.007863649
0.2784992
0.28049166
0.28367993
0.28711008
0.2896677
0.29045862
0.2891989
0.28634708
0.28289227
0.27993283
0.2784526
0.27785611
0.2805953
0.2846808
0.28891442
0.29191164
0.2925862
0.29068482
0.2869234
0.28261249
0.27907958
0.27758566
0.27559721
0.27945678
0.28542488
0.29179679
0.29641004
0.29745598
0.29449937
0.2887581
0.28235257
0.27727354
0.27536751
0.27124782
0.27718895
0.28665072
0.29717476
0.30505395
0.30686472
0.30174747
0.2920753
0.28169607
0.27377525
0.27098763
0.2636204
0.27287744
0.28816275
0.30604947
0.32009532
0.32339456
0.31411242
0.29722687
0.28003102
0.2674856
0.26330518
0.25069738
0.26464776
0.28892718
0.31939025
0.34492357
0.35112873
0.33384365
0.30404482
0.27576696
0.25640662
0.25041238
0.22940358
0.24888585
0.28540029
0.33600023
0.3823094
0.39405537
0.36177481
0.30979613
0.26513665
0.23719174
0.22947593
0.19552077
0.21896561
0.26770498
0.34506996
0.41530576
0.43070665
0.38557616
0.30366544
0.23981105
0.20461315
0.19680061
0.14459896
0.16444394
0.2103015
0.2567575
0.275362
0.28189012
0.26621248
0.23857296
0.1836353
0.15193614
0.14873178
0.075251033
0.073920378
0.047046213
-0.03462735
-0.034384531
-0.014124922
-0.04870011
0.0048660833
0.067316132
0.074781044
0.084425622
-0.0039664387
-0.04591396
-0.17642487
-0.34178641
-0.44920679
-0.40520077
-0.38194906
-0.26770564
-0.095262436
-0.0182962
0.010821076
-0.071474743
-0.1361049
-0.28841807
-0.46560049
-0.56165902
-0.66198191
-0.53990683
-0.37764869
-0.20185073
-0.095674286
-0.055035106
-0.10849767
-0.16072491
-0.25436928
-0.35524249
-0.46531795
-0.49608147
-0.40912051
-0.30312432
-0.20650896
-0.12907869
-0.096153465
-0.11564169
-0.14295435
-0.17897437
-0.21239348
-0.24325353
-0.25195331
-0.22900933
-0.19556985
-0.16210752
-0.12651513
-0.1094562
-0.10442518
-0.11211818
-0.11687055
-0.12081335
-0.12505504
-0.12636551
-0.12310234
-0.11873098
-0.11499114
-0.10693967
-0.10338406
-0.085785937
-0.082476583
-0.074618532
-0.067950349
-0.064082232
-0.063374178
-0.065662944
-0.070991448
-0.078595564
-0.083631818
-0.087903726
-0.066204413
-0.05862393
-0.047445999
-0.038245134
-0.032670968
-0.031543297
-0.034965581
-0.042461243
-0.05291797
-0.062544401
-0.069712214
-0.048748876
-0.040624783
-0.029896391
-0.021181778
-0.015947572
-0.014880618
-0.018088254
-0.025168228
-0.035103699
-0.045191568
-0.052529162
-0.034344157
-0.027124772
-0.018138999
-0.010861669
-0.0064829526
-0.0055907042
-0.0082684671
-0.014191711
-0.022498145
-0.031308836
-0.037840656
-0.022760121
-0.016929085
-0.0098982647
-0.0041139237
-0.00064807061
6.0422954e-05
-0.0020590889
-0.0067601226
-0.013323221
-0.020350444
-0.025784653
-0.013419449
-0.0091260765
-0.0038415438
0.00061246181
0.0033405614
0.0039037698
0.0022279503
-0.0014399961
-0.0064393764
-0.011613538
-0.015955952
-0.0056384502
-0.003481028
8.8117928e-05
0.003438439
0.005639255
0.0061090048
0.0047301745
0.0018607527
-0.0017288394
-0.004930827
-0.0077362521
0.28235101
0.27895133
0.28162173
0.28554459
0.28966083
0.29269946
0.29363559
0.29214072
0.28874422
0.28457761
0.28089595
0.27867936
0.27748964
0.27849203
0.28198219
0.28689302
0.291904
0.29543055
0.29622185
0.29398548
0.2895473
0.28441249
0.28008457
0.27796943
0.27506067
0.27650202
0.28148617
0.28874953
0.2964015
0.3019237
0.30317375
0.29963427
0.29275212
0.28502187
0.27871875
0.27588493
0.27055905
0.27264772
0.28039438
0.2921164
0.30504335
0.31473273
0.31696109
0.3106609
0.29877565
0.28599398
0.27602412
0.27177541
0.26269507
0.26579987
0.27801754
0.29737871
0.32008198
0.33806007
0.34230084
0.33038273
0.3088559
0.28708603
0.27102687
0.26452637
0.24955732
0.25396813
0.2727116
0.30444167
0.34490834
0.37962376
0.38814718
0.3644699
0.32440781
0.28720941
0.26181798
0.25224224
0.22835102
0.23394349
0.2607894
0.31072404
0.3823042
0.44986513
0.46673756
0.41978453
0.3449356
0.28283733
0.24489112
0.23201932
0.19549126
0.20093133
0.234388
0.30538767
0.41535705
0.49851797
0.51657446
0.46423245
0.35892954
0.26422969
0.21409623
0.19985478
0.14756172
0.14911261
0.17865254
0.23640029
0.27548453
0.34359618
0.37282013
0.30318032
0.25931217
0.20545628
0.16015127
0.15136788
0.084046767
0.075234019
0.067759128
0.00441448
-0.033141743
0.19844642
0.30535559
0.050007342
-0.041063211
0.04800875
0.073914344
0.084681116
0.011955438
-0.012017936
-0.08279546
-0.27103886
-0.44419177
-0.15675255
0.38727378
-0.092479554
-0.37405312
-0.16379519
-0.037469758
0.0067461772
-0.052480548
-0.085358269
-0.18255388
-0.38312247
-0.56202177
-0.60553878
-0.76041643
-0.82186468
-0.50300276
-0.27653522
-0.12181208
-0.06236145
-0.0933259
-0.12075077
-0.19221437
-0.30406246
-0.46517387
-0.73023176
-0.81996631
-0.58182669
-0.37037841
-0.24698937
-0.14838335
-0.10293599
-0.1074012
-0.12194596
-0.1567869
-0.19564568
-0.24337385
-0.30627721
-0.32444689
-0.27398195
-0.21733821
-0.17605577
-0.13506827
-0.11376248
-0.10231927
-0.10633467
-0.11418493
-0.11853747
-0.12512883
-0.1348314
-0.13767661
-0.12983035
-0.12127255
-0.11628209
-0.10869492
-0.10552492
-0.08741928
-0.084706082
-0.079672178
-0.070862131
-0.064116199
-0.060969307
-0.060450452
-0.062075447
-0.067048744
-0.075087877
-0.082318629
-0.088057447
-0.069669736
-0.063967081
-0.054560424
-0.042415891
-0.032686364
-0.026976002
-0.025827407
-0.029257489
-0.037094896
-0.048264358
-0.060111905
-0.068802562
-0.052814281
-0.046492378
-0.036689143
-0.025161647
-0.0159534
-0.01048953
-0.0093704233
-0.012697757
-0.020131738
-0.030719222
-0.042445479
-0.051336697
-0.038244443
-0.032430867
-0.02382109
-0.014192861
-0.0064849742
-0.0019223815
-0.00099031256
-0.0037635109
-0.0099907501
-0.018843858
-0.028731173
-0.036710186
-0.026201188
-0.021270819
-0.014357169
-0.0067646858
-0.00064846272
0.0029792289
0.0037211263
0.0015142001
-0.0034292977
-0.010456194
-0.018216145
-0.024748321
-0.016280057
-0.012345324
-0.0072168634
-0.0014488152
0.0033408198
0.0062355423
0.0068322113
0.0050629571
0.0011473222
-0.0042777382
-0.010057055
-0.015044468
-0.007746286
-0.0051399007
-0.0022421348
0.0018473014
0.0056381465
0.0081037646
0.0086300342
0.0070911331
0.0038613824
-0.00022769405
-0.0040054936
-0.007066432
0.27807227
0.27911145
0.28198032
0.28612266
0.29044347
0.29362694
0.29460716
0.29304146
0.28948175
0.28510368
0.28120599
0.27877392
0.27737536
0.27866575
0.28230272
0.28738902
0.29256946
0.29621243
0.29702984
0.29472021
0.29013443
0.28482154
0.28033388
0.2777802
0.27508529
0.27675076
0.28196309
0.28950192
0.29743648
0.30316224
0.30445883
0.30078946
0.2936542
0.28563617
0.27909243
0.27546375
0.27060007
0.27302876
0.28115533
0.29336931
0.30683932
0.31694535
0.3192715
0.31270032
0.30031118
0.28699641
0.27661039
0.27101205
0.26275793
0.26639322
0.27924939
0.29952878
0.32335832
0.34227608
0.34674609
0.33420043
0.31157905
0.28875692
0.27195747
0.26322453
0.24965193
0.25485892
0.27467029
0.30814644
0.3510724
0.38810227
0.39720551
0.37194458
0.32932225
0.28997755
0.26325864
0.25009135
0.2284846
0.23517591
0.26373416
0.31696696
0.39396333
0.46665197
0.48442529
0.43452222
0.35376021
0.28725464
0.24698556
0.22858067
0.19564935
0.20237868
0.23827983
0.31493815
0.430614
0.5164905
0.53584151
0.4808563
0.37236735
0.27057917
0.21676686
0.19459822
0.14767582
0.15023178
0.18214522
0.24040903
0.28211248
0.37270532
0.40944827
0.31963703
0.26261092
0.21041423
0.1626361
0.14389489
0.083957366
0.07494474
0.065181134
-0.004452515
-0.015490261
0.30430666
0.42620632
0.11239076
-0.042762073
0.041975134
0.073715557
0.075304254
0.011497789
-0.014937396
-0.092645498
-0.29233124
-0.40615543
0.38679419
0.9957769
0.36611824
-0.3863582
-0.18147874
-0.042842831
-0.0027232528
-0.053210086
-0.089933612
-0.19424611
-0.39731893
-0.64730767
-0.7635835
-0.42413351
-0.81757715
-0.59070523
-0.29439974
-0.1289503
-0.069146907
-0.093963262
-0.12387751
-0.19987335
-0.31595365
-0.49555618
-0.81996203
-0.89612313
-0.64360543
-0.38799851
-0.25659522
-0.15383503
-0.10575565
-0.10772998
-0.12324365
-0.1596087
-0.19928077
-0.2517676
-0.32439223
-0.34175708
-0.28768597
-0.22313713
-0.1793427
-0.13789039
-0.11370102
-0.1023534
-0.10602529
-0.11446431
-0.11880245
-0.12626546
-0.13763944
-0.14064962
-0.13188974
-0.12204818
-0.11665705
-0.10970797
-0.10357625
-0.087302486
-0.083678444
-0.079045623
-0.069997825
-0.063319533
-0.060430624
-0.059944206
-0.061428643
-0.066279932
-0.074408592
-0.082437577
-0.085455045
-0.069584428
-0.062881964
-0.053613264
-0.041315554
-0.031510709
-0.025815536
-0.024662543
-0.028090238
-0.035992692
-0.047301377
-0.059451397
-0.066552593
-0.052700146
-0.045622426
-0.035758424
-0.024140506
-0.01485989
-0.0093624825
-0.0082348382
-0.011582404
-0.019093712
-0.029790324
-0.041627564
-0.049351211
-0.038127888
-0.031834696
-0.023065452
-0.013348045
-0.005576791
-0.00098472901
-4.4687783e-05
-0.0028371143
-0.0091197499
-0.018072114
-0.02807304
-0.034897403
-0.026029099
-0.020913752
-0.013780521
-0.0061012698
6.9732111e-05
0.0037250108
0.0044734003
0.0022502459
-0.0027410921
-0.0098492558
-0.017720145
-0.023220688
-0.016136182
-0.012107646
-0.0067897507
-0.00094040042
0.0039093326
0.0068344719
0.0074378932
0.0056509545
0.001687628
-0.0038193195
-0.0096908743
-0.013789623
-0.0075042204
-0.0050446283
-0.0019604225
0.0022299814
0.0061113404
0.0086305928
0.009169043
0.0075960942
0.0042913669
9.8973327e-05
-0.0037894632
-0.005722753
0.2788424
0.28140418
0.28518839
0.28917484
0.29212274
0.29303182
0.29158246
0.28829018
0.28425938
0.28071441
0.27856413
0.27820821
0.28139901
0.28596972
0.29065892
0.29396612
0.29470979
0.29261399
0.28845788
0.28366476
0.27966232
0.27787372
0.27608765
0.28062222
0.28735058
0.29446877
0.29961065
0.3007765
0.29748393
0.29108139
0.28390299
0.27810091
0.27574433
0.27200103
0.27901626
0.28979473
0.30170815
0.31062922
0.31268247
0.3068904
0.29594721
0.28417558
0.2750557
0.27155522
0.26478494
0.27578781
0.29342054
0.3140563
0.33033405
0.33417158
0.3234075
0.30389059
0.28407541
0.26949259
0.26417531
0.25243106
0.26917686
0.29768617
0.3337577
0.36438749
0.37189179
0.35108759
0.31558993
0.28227891
0.25945996
0.25170044
0.23178298
0.25549684
0.29948104
0.36163228
0.41963366
0.43441268
0.39388353
0.32944519
0.27511784
0.24151611
0.23123631
0.19830369
0.22739439
0.28821149
0.38537233
0.46406352
0.48071336
0.43191221
0.33457801
0.25344575
0.20991956
0.19884781
0.14681304
0.17205783
0.22625904
0.26629169
0.30312495
0.31958601
0.2814517
0.25260664
0.19650994
0.15655753
0.15033906
0.074963428
0.070830972
0.023747059
-0.048221844
0.050917953
0.11034763
-0.019463147
-0.025757244
0.057988286
0.074664895
0.084129912
-0.0084218754
-0.065646922
-0.23133787
-0.38656605
-0.090163873
0.36632563
-0.035784525
-0.32718268
-0.13349428
-0.028240796
0.0072719653
-0.078869698
-0.16100278
-0.34195672
-0.53421034
-0.82268081
-0.8281818
-0.82014932
-0.44350589
-0.24505605
-0.11015602
-0.06091477
-0.11525454
-0.17794941
-0.28236632
-0.40879919
-0.58137128
-0.64271383
-0.49705969
-0.34112184
-0.23074417
-0.14018734
-0.10150809
-0.11905682
-0.15062417
-0.1882521
-0.22877363
-0.27390657
-0.28757948
-0.25173148
-0.20797409
-0.17056691
-0.13163563
-0.1127351
-0.10535923
-0.11333696
-0.1176666
-0.12297813
-0.12982794
-0.13183562
-0.1264017
-0.12022158
-0.11596086
-0.10816133
-0.10497321
-0.085072824
-0.080755369
-0.072313969
-0.065596305
-0.062075427
-0.061404441
-0.063386971
-0.068688327
-0.07661783
-0.082950532
-0.087987397
-0.064777926
-0.056171699
-0.044421996
-0.034926877
-0.029255473
-0.028077764
-0.031529671
-0.039292091
-0.050211096
-0.061195355
-0.06885396
-0.04730897
-0.038264587
-0.027064442
-0.01806423
-0.012694285
-0.011574624
-0.014860156
-0.022177323
-0.032534559
-0.043715739
-0.051343142
-0.033139259
-0.025157269
-0.015786077
-0.0082526274
-0.0037598664
-0.0028319944
-0.0055676401
-0.011694335
-0.020351881
-0.029924318
-0.036667243
-0.021843004
-0.0153954
-0.0080330442
-0.0020485907
0.0015172651
0.0022536255
8.0757665e-05
-0.004775693
-0.011638964
-0.019152881
-0.02472048
-0.012746459
-0.007995335
-0.0024227748
0.0022334278
0.0050646237
0.0056528063
0.003920383
9.7408257e-05
-0.0051682996
-0.010745277
-0.014971308
-0.0053122323
-0.0027615394
0.0011198477
0.0047312654
0.0070897036
0.0075966124
0.0061224576
0.003036937
-0.00085384784
-0.0044418262
-0.0069154732
0.27834817
0.28015832
0.28310818
0.28631496
0.28871739
0.28946244
0.28828003
0.28560677
0.28238558
0.27966074
0.27819871
0.27760997
0.27970119
0.28320131
0.2868898
0.28951933
0.29011446
0.28844767
0.28516133
0.28143334
0.27847036
0.27749877
0.27540406
0.27816057
0.28322556
0.28871889
0.29271845
0.29362962
0.29106862
0.2861079
0.28062334
0.27641614
0.27519419
0.27106996
0.2751633
0.28309858
0.29202739
0.29873312
0.30027919
0.29593065
0.28771597
0.27895584
0.27245239
0.27071057
0.26346104
0.26966946
0.28231134
0.29716323
0.30879556
0.31153059
0.30386475
0.28987638
0.27561586
0.26541971
0.2628632
0.25066283
0.25970923
0.2793967
0.30395906
0.32432018
0.32924367
0.31554582
0.29168095
0.26879964
0.25329761
0.24972994
0.22981988
0.24178782
0.27057704
0.30968141
0.34480548
0.35361455
0.32935483
0.28966045
0.25478124
0.23287404
0.2284933
0.19716521
0.21008201
0.24702684
0.30353743
0.35878949
0.37210996
0.33436989
0.27368421
0.22626633
0.19947874
0.1955401
0.14890628
0.15646112
0.19066864
0.23855848
0.25931578
0.26246613
0.25242943
0.21609136
0.17093661
0.14772344
0.1474332
0.084051934
0.074490847
0.064721283
0.0049307338
-0.040527234
-0.043626295
-0.025761713
0.041213068
0.073043103
0.07510942
0.083671915
0.00965193
-0.028122889
-0.1157471
-0.26767148
-0.37467664
-0.38568358
-0.32716129
-0.19400857
-0.061077102
-0.0095764645
0.011325516
-0.056657868
-0.11104387
-0.22758471
-0.37756371
-0.50397275
-0.58958252
-0.44226215
-0.30455677
-0.15881511
-0.081356322
-0.053273467
-0.097559983
-0.14169613
-0.22118507
-0.30318107
-0.37048177
-0.3876175
-0.34073741
-0.26320035
-0.17861821
-0.11791881
-0.094075503
-0.11035042
-0.1331753
-0.16736969
-0.19564787
-0.21753118
-0.22294204
-0.20766718
-0.18203136
-0.15184313
-0.12127685
-0.10792074
-0.10369012
-0.10923916
-0.11559299
-0.1187768
-0.12138449
-0.12195502
-0.12006746
-0.11721774
-0.11389777
-0.10655662
-0.10258541
-0.087667641
-0.083463822
-0.077294397
-0.071016704
-0.067108027
-0.066233617
-0.068607975
-0.073882705
-0.081022402
-0.085535347
-0.0875973
-0.069172431
-0.061179846
-0.051141597
-0.04247329
-0.037125065
-0.035967542
-0.039249934
-0.046434548
-0.056299066
-0.064891872
-0.069724134
-0.051865628
-0.043408831
-0.033424619
-0.025172886
-0.020146533
-0.019078651
-0.022154324
-0.028940112
-0.038353352
-0.047273026
-0.052732352
-0.037183266
-0.029495067
-0.021093961
-0.014192505
-0.0099974216
-0.0091102744
-0.011681215
-0.017340472
-0.025211427
-0.033044224
-0.038099043
-0.025156873
-0.018762158
-0.012225208
-0.0067593208
-0.0034323389
-0.0027350789
-0.0047683811
-0.0092647349
-0.015424419
-0.021722649
-0.026007544
-0.015370358
-0.010450701
-0.0056068219
-0.0014401053
0.001145551
0.0016908322
0.00010111187
-0.0033572628
-0.008010852
-0.012633731
-0.016069933
-0.0072074408
-0.0042710585
-0.0011563425
0.0018586938
0.0038579441
0.0042918441
0.0030381177
0.00044129822
-0.0027625647
-0.0054113814
-0.0076463072
0.27748798
0.27880066
0.28066759
0.28285381
0.28454371
0.28507616
0.28423984
0.2823756
0.28021171
0.27855689
0.27727659
0.27798564
0.28011927
0.28257345
0.28437801
0.28479393
0.28364574
0.28142389
0.27902172
0.27781987
0.27486854
0.2757652
0.27875351
0.28230804
0.28498173
0.28560321
0.28387982
0.28061208
0.2771679
0.27564136
0.27024667
0.27148622
0.27607044
0.2816448
0.28594622
0.28695619
0.28414734
0.27894237
0.27359191
0.27137676
0.26218476
0.2639533
0.27107564
0.27996789
0.28702416
0.28870117
0.28403451
0.27559668
0.26717029
0.26387023
0.24875532
0.25113407
0.26182402
0.2756931
0.28713154
0.28989834
0.28221709
0.26877023
0.25587952
0.25118721
0.22718283
0.22990904
0.24474151
0.26505711
0.28274251
0.28713061
0.27501005
0.25473219
0.23636218
0.230415
0.19401199
0.19598539
0.21365724
0.23975676
0.26415025
0.27037742
0.25324155
0.2261793
0.20346995
0.19766866
0.14613776
0.14483351
0.15958463
0.1837014
0.2055372
0.21012445
0.19612465
0.17078166
0.15079829
0.14895758
0.08347705
0.075110146
0.074715374
0.067529073
0.048119491
0.041905373
0.057803938
0.07281141
0.07461162
0.083137782
0.013024623
-0.004589573
-0.034084278
-0.095404332
-0.16390102
-0.18111144
-0.13294946
-0.061060879
-0.016249933
0.0074261076
-0.05007244
-0.07264452
-0.12065278
-0.20216117
-0.27662258
-0.29393059
-0.24429975
-0.15843895
-0.092625664
-0.059797986
-0.090890224
-0.10987431
-0.15044702
-0.20680177
-0.24724717
-0.25627421
-0.2301501
-0.17820978
-0.12772779
-0.10050184
-0.10579399
-0.11699648
-0.13847435
-0.16231098
-0.17626459
-0.17916338
-0.17019954
-0.15159258
-0.12648637
-0.11245728
-0.10154411
-0.10548391
-0.11142014
-0.11512818
-0.11641795
-0.11656161
-0.11575121
-0.11375537
-0.10774156
-0.10492495
-0.087241449
-0.08631505
-0.083477754
-0.078682645
-0.075170877
-0.07435609
-0.076497165
-0.080945438
-0.084463158
-0.088162136
-0.069748166
-0.066367559
-0.060080709
-0.05297245
-0.048315714
-0.047270968
-0.050141026
-0.056256599
-0.06320181
-0.069005833
-0.052930332
-0.048708337
-0.04201978
-0.03513965
-0.03075208
-0.029770791
-0.032491446
-0.038325819
-0.045618654
-0.051149456
-0.03835729
-0.034228284
-0.028317328
-0.022522388
-0.018865052
-0.018058947
-0.02032382
-0.025192465
-0.031598922
-0.03615055
-0.026298712
-0.022636095
-0.017852038
-0.013339672
-0.010469667
-0.0098406169
-0.011621114
-0.015413853
-0.020448264
-0.024083903
-0.01636778
-0.013303648
-0.0098064893
-0.0064510835
-0.0042862634
-0.0038142591
-0.0051583719
-0.0080064297
-0.011686105
-0.014373797
-0.0077472406
-0.0056933338
-0.0039067201
-0.0017362488
-0.00023353037
0.000100506
-0.00085098991
-0.0027617877
-0.0049854686
-0.0062078845
0.27787057
0.27873834
0.27989063
0.2808574
0.28117271
0.28068793
0.27964297
0.27854701
0.27782438
0.27722265
0.27782261
0.27903738
0.2800461
0.28030089
0.27963638
0.27845325
0.27781224
0.27726086
0.27485355
0.27553073
0.27722722
0.27867542
0.27905461
0.27807117
0.27639649
0.27563281
0.27489558
0.27021519
0.27112241
0.27372368
0.27597488
0.27656656
0.27502062
0.27242876
0.27136651
0.27025248
0.26212447
0.26339264
0.26742644
0.27096756
0.27190148
0.26944628
0.26538878
0.26385607
0.26215045
0.24865069
0.25031097
0.25634328
0.26175004
0.26318667
0.25939663
0.25325381
0.25116962
0.248659
0.22701526
0.22880308
0.23713134
0.24481692
0.24688858
0.24142177
0.23280835
0.23039104
0.22700362
0.19377282
0.19472731
0.20457789
0.21403417
0.21663817
0.2097756
0.19938063
0.19762995
0.19375198
0.14585284
0.14384087
0.1519671
0.16014972
0.16248008
0.15634543
0.14758259
0.14890243
0.1458633
0.083230011
0.075121477
0.074922552
0.074042065
0.073574286
0.074388923
0.074927312
0.083067451
0.08334408
0.012927397
-0.00293551
-0.018063664
-0.037299904
-0.042829163
-0.028418839
-0.009754189
0.0073538576
0.013202476
-0.050005203
-0.069724501
-0.0955173
-0.12181053
-0.12876681
-0.11002749
-0.081451537
-0.059847942
-0.049607096
-0.090775956
-0.10701477
-0.12913681
-0.14857016
-0.1536042
-0.13980831
-0.11789772
-0.10051875
-0.090416072
-0.10574591
-0.11497736
-0.12676012
-0.13531028
-0.13769546
-0.13118931
-0.12115999
-0.11244442
-0.10552998
-0.1015579
-0.10457713
-0.10726182
-0.10887447
-0.10957112
-0.10781081
-0.10632413
-0.10488762
-0.10150678
-0.087295805
-0.086228551
-0.083925779
-0.082436332
-0.082355533
-0.082702838
-0.085270069
-0.088124017
-0.087321855
-0.06981867
-0.066675649
-0.062760419
-0.060188609
-0.059407169
-0.061039176
-0.064649325
-0.06897655
-0.069843527
-0.052974394
-0.04913471
-0.045343185
-0.042497213
-0.041600896
-0.043620159
-0.047065521
-0.05113353
-0.053034485
-0.038364451
-0.034671901
-0.031413912
-0.028766277
-0.028056476
-0.029866471
-0.032884109
-0.036152241
-0.038481467
-0.026304124
-0.022991359
-0.020428064
-0.018240896
-0.017709002
-0.019115236
-0.021609165
-0.024103791
-0.026455104
-0.016330625
-0.013581545
-0.011672574
-0.0100748
-0.0096814183
-0.01072248
-0.012559112
-0.014411001
-0.016481678
-0.0075935368
-0.0057351967
-0.0049671702
-0.0040139885
-0.003781154
-0.0044379558
-0.0053635028
-0.006262085
-0.0078813444
0.2808057
0.27841358
0.27863873
0.27873717
0.27853318
0.27819193
0.27737454
0.27754417
0.27792913
0.27774458
0.27784372
0.27748081
0.27492318
0.27532183
0.27584188
0.2754245
0.27571142
0.27516937
0.27032316
0.27093739
0.27172704
0.27096673
0.27151678
0.2706808
0.26229789
0.26324983
0.26447139
0.26317074
0.26412858
0.26282599
0.24892425
0.25035387
0.25218147
0.25002513
0.25164085
0.24968044
0.22742731
0.22942188
0.23195695
0.22849992
0.23115683
0.22842401
0.19433957
0.19676549
0.19980258
0.19450414
0.19874181
0.1954445
0.14651929
0.14873945
0.15134915
0.14379622
0.15020295
0.14730621
0.083823366
0.08449453
0.084719013
0.075220242
0.083976571
0.083522031
0.013209974
0.010946075
0.0068401135
-0.0027598713
0.0071460688
0.011186332
-0.050117778
-0.054900073
-0.062249821
-0.069124034
-0.060964063
-0.053354831
-0.091111423
-0.096058227
-0.10285365
-0.10569747
-0.10147661
-0.094078267
-0.10607767
-0.10942087
-0.11371907
-0.11363839
-0.11264907
-0.10785741
-0.10179193
-0.10340268
-0.10552491
-0.10353511
-0.1048647
-0.10247044
-0.087440037
-0.08795034
-0.088083807
-0.08542229
-0.087878036
-0.087466194
-0.069908788
-0.069770599
-0.068848777
-0.066532004
-0.068765594
-0.069593051
-0.053059341
-0.052587643
-0.051386086
-0.049349266
-0.051275565
-0.052602279
-0.038474385
-0.0379001
-0.036761603
-0.034901796
-0.036621093
-0.037972939
-0.026414721
-0.025838635
-0.024798568
-0.023227178
-0.024699485
-0.025884074
-0.01647106
-0.015994094
-0.015077774
-0.013790168
-0.014973009
-0.015956479
-0.0078517862
-0.0077525367
-0.0070936344
-0.0057051201
-0.0069335554
-0.0075626557
0.28077701
0.2781225
0.27763278
0.27768589
0.27838196
0.27847843
0.27773998
0.27802678
0.27801255
0.27784209
0.27768634
0.27860468
0.27869941
0.2781084
0.27825195
0.28242919