/*--------------------------------*- C++ -*----------------------------------*\
  =========                 |
  \\      /  F ield         | OpenFOAM: The Open Source CFD Toolbox
   \\    /   O peration     | Website:  https://openfoam.org
    \\  /    A nd           | Version:  8
     \\/     M anipulation  |
\*---------------------------------------------------------------------------*/
FoamFile
{
    version     2.0;
    format      ascii;
    class       surfaceScalarField;
    location    "200";
    object      phi;
}
// * * * * * * * * * * * * * * * * * * * * * * * * * * * * * * * * * * * * * //

dimensions      [0 3 -1 0 0 0 0];

internalField   nonuniform List<scalar> 
215364
(
-3.3090963e-06
0.00099028913
-0.00013502494
-5.7660851e-06
1.2147979e-05
0.0020781438
0.00011836062
-0.0012121928
4.8619222e-07
-3.0508354e-06
0.0012147581
-0.0023841527
-1.7886808e-07
3.3579473e-07
-8.7243902e-06
0.002392722
-0.0012168909
-9.7227244e-08
0.0012176774
-6.8887806e-07
-0.0023989788
2.3345464e-08
1.317104e-08
0.0024019406
-2.9965313e-06
-0.0012213222
-2.6187834e-07
0.0012230229
-1.4382762e-06
-0.0024087632
5.534787e-08
5.150329e-08
0.0024133636
-4.7055507e-06
-0.0012298969
-5.173684e-07
0.0012328894
-2.4747464e-06
-0.0024260937
7.6903405e-08
1.322516e-07
0.0024332682
-7.3817459e-06
-0.0012444967
-8.937084e-07
0.0012494084
-4.0173529e-06
-0.0024550968
9.0771833e-08
2.7898465e-07
0.002466137
-1.1409681e-05
-0.0012679588
-1.4516619e-06
0.0012756194
-6.208464e-06
-0.0025014693
1.3020486e-07
4.8833306e-07
0.0025180756
-1.7225368e-05
-0.0013037345
-2.2112251e-06
0.0013149837
-9.0382226e-06
-0.0025720533
1.812375e-07
7.833932e-07
0.0025959553
-2.4870758e-05
-0.0013546227
-3.097084e-06
0.0013697678
-1.2048511e-05
-0.0026725311
2.4610187e-07
1.1288102e-06
0.0027044097
-3.3256854e-05
-0.0014200028
-3.8372473e-06
0.0014379017
-1.4062134e-05
-0.0028019012
3.2822717e-07
1.3804979e-06
0.0028394626
-3.9277566e-05
-0.0014921099
-3.990965e-06
0.0015094868
-1.3386693e-05
-0.0029449259
4.20052e-07
1.3200373e-06
0.0029814272
-3.8246455e-05
-0.0015556968
-3.3474179e-06
0.0015684093
-9.3657985e-06
-0.0030710602
4.8581953e-07
8.5340569e-07
0.0030979817
-2.8263742e-05
-0.0015967119
-2.2411047e-06
0.0016028429
-3.8904565e-06
-0.0031520409
5.0027966e-07
1.7947306e-07
0.0031655035
-1.4143844e-05
-0.0016123844
-1.2030896e-06
0.0016130732
5.1391962e-07
-0.0031826364
4.7172931e-07
-3.92569e-07
0.0031851639
-2.607086e-06
-0.0016095669
-4.4862603e-07
0.0016070011
3.0141818e-06
-0.0031767418
4.2414202e-07
-7.3994029e-07
0.0031727752
4.2826342e-06
-0.0015967761
-4.2767461e-08
0.0015928637
3.9549409e-06
-0.0031513461
3.7135679e-07
-8.6532771e-07
0.0031447625
7.0780511e-06
-0.0015805932
2.2368041e-07
0.0015765173
3.8520979e-06
-0.0031195035
3.2873749e-07
-9.1043092e-07
0.0031125862
7.4994516e-06
-0.0015647592
4.1307804e-07
0.0015610677
3.278218e-06
-0.0030880742
3.223205e-07
-9.1447658e-07
0.0030818325
6.8344549e-06
-0.0015507279
4.7177201e-07
0.0015475427
2.7132269e-06
-0.0030598934
3.1398297e-07
-8.5378014e-07
0.0030545488
5.8850043e-06
-0.0015386538
3.6248073e-07
0.0015358803
2.4109414e-06
-0.0030350304
3.9987062e-07
-7.8235197e-07
0.0030303515
5.0620348e-06
-0.0015278752
1.3375222e-07
0.0015252101
2.5313972e-06
-0.0030120709
6.1002738e-07
-8.2672621e-07
0.0030071138
5.1743975e-06
-0.0015126995
-8.0570572e-07
0.0014974204
1.608492e-05
1.4774843e-06
-0.0029758034
-2.0055071e-06
0.0029432612
3.3070619e-05
-9.5428526e-06
-9.6767492e-05
2.5675948e-05
0.0033548256
1.3504589e-05
-2.1161161e-05
-1.6174276e-05
1.4354932e-05
0.0029642375
3.998393e-05
-3.0199875e-05
-9.9082848e-06
7.1444638e-06
0.0028587589
2.7330493e-05
-1.4636615e-05
5.2460482e-08
-2.1282003e-06
0.0027942522
1.4081122e-05
-3.6936093e-05
9.9482553e-06
-1.1806109e-05
0.0028849696
3.3426441e-05
-1.5561431e-05
1.6181206e-05
-1.6063096e-05
0.0030169473
3.6988235e-05
9.6768698e-05
9.202412e-05
0.0022786464
5.9304988e-05
-0.003390114
8.1293014e-08
2.3197754e-07
5.1602879e-07
1.3863363e-06
0.0033879044
-7.099253e-06
-0.011452064
-9.7992216e-06
4.1489629e-05
0.011341299
0.00013328731
-1.7559866e-05
-1.7548054e-06
2.1068592e-06
-2.8267205e-05
-2.8779381e-06
1.2669539e-06
-2.2001733e-05
-0.01128846
-3.6732178e-05
2.1391535e-05
0.011240457
8.6674306e-05
-1.517886e-05
5.0647999e-06
8.8154519e-06
1.0001557e-05
-0.011108256
-8.4278634e-08
-2.1344408e-05
0.011068099
5.161897e-05
-2.4650548e-05
-0.011430094
-4.1631561e-05
0.011352601
0.00012407269
3.6834007e-05
-2.2347234e-05
3.1266561e-06
2.1191775e-06
-0.0028506144
-5.2399142e-06
9.8332362e-06
-6.5068564e-06
2.2718684e-05
0.0028298154
-0.0024320098
-1.9608401e-07
8.8579272e-07
-9.1924997e-07
0.0024322419
6.5841354e-07
-0.0033876957
5.825703e-07
-1.0062074e-06
0.0033892651
-1.7984431e-06
2.9202235e-06
3.1106991e-07
-0.011288675
6.4340145e-07
0.011272446
-3.4008788e-06
-1.5404519e-07
5.2002029e-06
7.5851459e-06
3.0901414e-06
-8.5092734e-06
8.5708987e-06
-4.7923625e-07
-1.9433505e-06
-0.011201602
1.8632635e-06
0.011188455
-9.323776e-06
-1.7860811e-06
1.168516e-05
1.3163068e-05
2.3353602e-05
-0.011046881
1.399539e-07
-2.1518615e-06
0.011040955
-1.5378695e-05
-1.0133219e-06
-0.011302652
-9.4592454e-07
0.011286182
-3.4833944e-06
2.2566631e-06
1.187707e-07
1.0377811e-05
9.1926374e-06
1.9618423e-06
-0.0028184349
-2.4442464e-07
8.1054145e-07
0.0028154493
4.6393155e-07
-0.0024340652
-5.1378869e-07
2.5598894e-07
0.0024356791
-1.3533925e-06
1.4831251e-06
-0.0033992113
1.3886475e-06
-2.65264e-06
0.0034039131
-4.915578e-06
9.008029e-06
4.1443926e-06
-0.011277646
-1.83749e-05
0.01129871
-6.2724194e-05
7.7455208e-06
1.0658072e-05
1.2732642e-05
6.2585494e-06
-2.2289952e-06
1.1743491e-05
1.0124428e-05
1.3787407e-05
-0.011192082
-7.1587047e-06
0.011209322
-8.2591827e-05
8.975209e-06
1.905294e-05
2.0603943e-05
6.2726453e-05
-0.011047215
2.7520324e-07
6.6229956e-06
0.011064939
-8.7307678e-05
8.6934525e-06
-0.011289836
1.7896743e-05
0.011308645
-7.3820915e-05
-1.3263098e-05
9.4601175e-06
1.6800068e-05
1.5457333e-05
6.286316e-06
-0.0028227567
-4.0429212e-06
3.7908916e-06
0.0028239935
-7.2653467e-06
-0.0024434705
-1.2835628e-06
6.9158914e-07
0.0024470403
-2.9757498e-06
2.5550163e-06
-0.0034234512
2.4641524e-06
-4.7077468e-06
0.0034319264
-8.7822695e-06
1.6376551e-05
8.2297578e-06
-0.011334255
-3.6600777e-05
0.011385082
-0.00012243688
1.6099577e-05
1.809207e-05
2.0450958e-05
1.0278981e-05
2.7312533e-06
1.5980604e-05
2.2137151e-05
2.8220197e-05
-0.011239721
-1.4996214e-05
0.011284396
-0.00016396603
2.1446793e-05
3.0309226e-05
3.2210384e-05
0.00011545632
-0.011094602
3.9167745e-07
1.4234222e-05
0.01113774
-0.00017317569
1.9233901e-05
-0.011341455
3.5934845e-05
0.011389166
-0.00014633811
-2.7481756e-05
1.9545645e-05
2.6549201e-05
2.4874062e-05
1.1382472e-05
-0.0028404402
-8.0894509e-06
7.0684538e-06
0.0028452413
-1.5158476e-05
-0.0024613918
-2.3220128e-06
1.2799631e-06
0.0024675716
-5.1365846e-06
4.1175688e-06
-0.0034647734
4.0513581e-06
-7.7038871e-06
0.0034787141
-1.440369e-05
2.7076613e-05
1.3971591e-05
-0.011453418
-6.13799e-05
0.011542518
-0.00020523976
2.7724564e-05
2.9104926e-05
3.2204322e-05
1.6131406e-05
8.9431625e-06
2.2392234e-05
3.8968232e-05
4.7650677e-05
-0.011345702
-2.5427301e-05
0.011427047
-0.00027872152
3.8764606e-05
4.7464826e-05
4.999246e-05
0.00019188705
-0.011196823
5.2831951e-07
2.4393121e-05
0.011275389
-0.00029533411
3.3890638e-05
-0.011454038
6.0498163e-05
0.011539418
-0.00024736916
-4.6661317e-05
3.364547e-05
4.1432941e-05
3.92065e-05
1.8755506e-05
-0.0028727748
-1.378912e-05
1.1734176e-05
0.0028822737
-2.6197186e-05
-0.002491432
-3.8738593e-06
2.1591946e-06
0.0025014658
-8.3185324e-06
6.3216827e-06
-0.0035308692
6.3110295e-06
-1.1961488e-05
0.00355257
-2.2367906e-05
4.2343601e-05
2.2038936e-05
-0.011656476
-9.6306306e-05
0.01179995
-0.00032297144
4.4175342e-05
4.4711065e-05
4.9059199e-05
2.4314115e-05
1.7528922e-05
3.1662202e-05
6.2911103e-05
7.5139193e-05
-0.011532846
-4.0212264e-05
0.011668443
-0.00044473568
6.334083e-05
7.22367e-05
7.5760932e-05
0.00030147617
-0.011377912
7.3406522e-07
3.8787743e-05
0.011509907
-0.00047294608
5.4688597e-05
-0.011649591
9.517621e-05
0.01178959
-0.0003923511
-7.3823992e-05
5.3653581e-05
6.2891307e-05
5.979081e-05
2.9254165e-05
-0.00292575
-2.1815357e-05
1.832995e-05
0.0029418549
-4.1873541e-05
-0.0025392273
-6.1027951e-06
3.4251469e-06
0.0025547467
-1.2844689e-05
9.1463032e-06
-0.0036310059
9.2009563e-06
-1.7434698e-05
0.0036626965
-3.2601903e-05
6.2174403e-05
3.2329576e-05
-0.01197781
-0.0001415792
0.012194415
-0.00047735438
6.5614017e-05
6.4571482e-05
7.075313e-05
3.4490976e-05
2.8728914e-05
4.3731165e-05
9.4384094e-05
0.00011108671
-0.011839808
-5.9624928e-05
0.012053064
-0.00066851772
9.5724986e-05
0.00010439268
0.00010938691
0.00044559095
-0.011677588
1.0424133e-06
5.7668116e-05
0.011887563
-0.00071417702
8.1961334e-05
-0.011964912
0.0001401979
0.012180846
-0.00058552993
-0.00010934178
7.979506e-05
9.0725147e-05
8.6326132e-05
4.2881279e-05
-0.0030075421
-3.2067382e-05
2.6782744e-05
0.0030323146
-6.2369768e-05
-0.0026114127
-8.9799341e-06
5.0755062e-06
0.002633983
-1.8671466e-05
1.2150907e-05
-0.0037723327
1.2208526e-05
-2.3217952e-05
0.0038146851
-4.3496546e-05
8.3510117e-05
4.301983e-05
-0.012452646
-0.00018982718
0.012752333
-0.00064598697
8.8946401e-05
8.5042991e-05
9.3531434e-05
4.4492396e-05
4.1014707e-05
5.65832e-05
0.0001289407
0.00014976347
-0.012313337
-8.0665105e-05
0.012622653
-0.00092255589
0.00013154102
0.00013840254
0.00014529275
0.00060306011
-0.012145458
1.4955986e-06
7.7914621e-05
0.012453893
-0.00099086556
0.00011192194
-0.012441492
0.000188212
0.012747838
-0.00080161505
-0.00014751617
0.00010826238
0.00012024353
0.00011416012
5.7638886e-05
-0.0031255258
-4.2746143e-05
3.5655388e-05
0.0031598405
-8.4870108e-05
-0.002712998
-1.2010989e-05
6.8558958e-06
0.002743051
-2.4906369e-05
1.422251e-05
-0.0039524303
1.4102247e-05
-2.7059024e-05
0.0040021073
-5.095141e-05
9.8109993e-05
4.9564756e-05
-0.013088117
-0.00022034476
0.013447382
-0.00076144708
0.00010544683
9.7279654e-05
0.00010790781
4.9430564e-05
4.9822254e-05
6.4923215e-05
0.00015308447
0.00017413263
-0.012977277
-9.4059182e-05
0.013366548
-0.00110714
0.00015710616
0.00015941513
0.00016814939
0.00070963263
-0.01280998
2.1300279e-06
9.0277984e-05
0.013205784
-0.0011978915
0.00013325707
-0.013095333
0.00021860736
0.013471229
-0.00095483134
-0.00017134665
0.00012806042
0.00013902369
0.00013127984
6.8165686e-05
-0.0032796205
-4.9323871e-05
4.134835e-05
0.0033207439
-0.00010132706
-0.0028420512
-1.3980962e-05
8.1157865e-06
0.0028771915
-2.928728e-05
1.3782425e-05
-0.0041499949
1.3273547e-05
-2.5934242e-05
0.0041981004
-4.92393e-05
9.3953929e-05
4.5760828e-05
-0.01381012
-0.00020589357
0.014152036
-0.00072226714
0.00010208245
8.9739728e-05
0.00010115948
4.3511579e-05
4.8276329e-05
6.168033e-05
0.00014596111
0.00016253369
-0.01377204
-8.8093573e-05
0.014162821
-0.0010653834
0.00015090225
0.00014688029
0.00015632896
0.00066913202
-0.013621945
2.4608869e-06
8.3974438e-05
0.014025312
-0.0011590314
0.00012856791
-0.013856326
0.00020452878
0.014224415
-0.0009152755
-0.00015992912
0.00012258751
0.00012989895
0.00012143804
6.6737144e-05
-0.0034520937
-4.5611282e-05
3.8961763e-05
0.0034916138
-9.9623397e-05
-0.0029832581
-1.3274066e-05
7.9760073e-06
0.0030172684
-2.8722576e-05
1.007336e-05
-0.0043247361
9.2503813e-06
-1.8810747e-05
0.0043601924
-3.5980061e-05
6.6769822e-05
3.0181493e-05
-0.014449706
-0.00014488846
0.014685966
-0.00050154333
7.3878248e-05
6.0630565e-05
7.0811572e-05
2.6995583e-05
3.4388453e-05
4.6436773e-05
0.0001009518
0.00011574153
-0.014508034
-6.4408465e-05
0.014776258
-0.00073256595
0.00010577603
9.8826238e-05
0.0001073675
0.00046238558
-0.014380159
3.5170579e-06
5.8901264e-05
0.014647636
-0.00079237519
9.1396472e-05
-0.014547323
0.000144212
0.014804671
-0.00063800376
-0.00011310268
8.5943455e-05
8.993983e-05
8.2173338e-05
5.0139157e-05
-0.0036044163
-3.0163926e-05
2.692646e-05
0.0036316956
-7.4196025e-05
-0.0031081266
-9.3753408e-06
6.1302228e-06
0.0031333197
-2.1955618e-05
4.5842522e-06
-0.0044392083
3.8766248e-06
-8.866275e-06
0.0044566171
-1.7010666e-05
2.9723207e-05
1.0297581e-05
-0.01485414
-6.6725751e-05
0.014954418
-0.00021712299
3.466144e-05
2.4707394e-05
3.2470516e-05
8.3161506e-06
1.5546909e-05
2.7791585e-05
4.1672078e-05
5.6621536e-05
-0.014946113
-3.6616585e-05
0.015019218
-0.0002694392
4.5369884e-05
4.1368904e-05
4.7856822e-05
0.00020116319
-0.014805657
6.9963054e-06
2.5141756e-05
0.014860231
-0.00028794291
4.0728524e-05
-0.014981067
6.5195988e-05
0.015074602
-0.00026014083
-5.0673694e-05
3.6665649e-05
4.0419888e-05
3.4206514e-05
2.6025548e-05
-0.0037008085
-1.0339326e-05
1.0763486e-05
0.0037116553
-3.7305604e-05
-0.0031902784
-4.0856108e-06
3.4822809e-06
0.0032028734
-1.1994489e-05
-2.8074522e-07
-0.0044847559
-4.2191073e-07
-4.610871e-07
0.0044868556
-9.404666e-07
-4.2734819e-07
-5.0881572e-06
-0.014993721
-8.8353775e-06
0.01498237
1.6621105e-05
2.244815e-06
-2.7896684e-06
2.444849e-06
-4.9374546e-06
-5.3795096e-07
1.262323e-05
-3.9958615e-06
1.3855115e-05
-0.015009921
-1.7376582e-05
0.014932145
8.4631142e-05
-2.1624337e-06
-5.7811401e-07
3.3664432e-06
-3.5295441e-06
-0.014826855
1.2804847e-05
-4.6151047e-06
0.014721361
0.00010079589
4.9557396e-07
-0.015094264
3.8553523e-06
0.015053192
3.6822509e-05
-4.1868192e-07
-1.9333333e-06
3.324747e-06
-1.1056564e-06
5.2933891e-06
-0.0037358385
5.1417737e-06
-2.3148858e-06
0.0037337268
-6.0121368e-06
-0.0032234504
1.733761e-07
1.2051658e-06
0.0032252528
-3.1800407e-06
-3.3109835e-06
-0.0044785469
-2.7042507e-06
4.5047483e-06
0.0044713646
8.6905701e-06
-1.7506011e-05
-1.2415006e-05
-0.014930309
2.4817758e-05
0.014847502
0.00015515938
-1.69374e-05
-1.7536333e-05
-1.4601729e-05
-1.0529948e-05
-1.0809887e-05
3.1507288e-06
-3.0542396e-05
-1.1556021e-05
-0.01480011
-8.0350425e-06
0.014630186
0.00029884694
-3.0878325e-05
-2.4704504e-05
-2.3224632e-05
-0.0001272404
-0.014562375
1.9783515e-05
-2.7143511e-05
0.014368512
0.00032844596
-2.3236394e-05
-0.014963287
-3.617855e-05
0.014835235
0.00021429793
3.5688068e-05
-2.3797321e-05
-1.811974e-05
-2.0612952e-05
-7.5144134e-06
-0.0037273236
1.2814226e-05
-9.3199537e-06
0.0037179103
1.3432682e-05
-0.0032195936
2.453569e-06
-2.3695735e-07
0.0032147972
2.5819785e-06
-4.5390129e-06
-0.0044440416
-3.3155255e-06
6.3243115e-06
0.0044329274
1.2643804e-05
-2.432372e-05
-1.3660258e-05
-0.014741482
3.7740487e-05
0.014617912
0.00022391642
-2.557816e-05
-2.3074995e-05
-2.1997894e-05
-1.094014e-05
-1.6486625e-05
-2.0322873e-06
-4.2015796e-05
-1.9900515e-05
-0.014437364
-6.2798844e-06
0.014234614
0.00038526076
-4.4092263e-05
-3.5026459e-05
-3.5204158e-05
-0.000179454
-0.014156051
2.68678e-05
-4.2723792e-05
0.013938957
0.00041239703
-3.4282744e-05
-0.014680644
-5.787215e-05
0.014509609
0.00029663231
5.6321742e-05
-3.3179296e-05
-2.78657e-05
-2.8720054e-05
-1.3300228e-05
-0.0036956636
1.4801165e-05
-1.1264042e-05
0.003682954
2.2473789e-05
-0.0031952701
3.0939151e-06
-9.4102467e-07
0.0031875951
5.5243711e-06
-4.6305668e-06
-0.0043994109
-3.0186439e-06
6.220179e-06
0.0043876793
1.3160838e-05
-2.561116e-05
-1.1863607e-05
-0.01448256
3.7665167e-05
0.014340551
0.00024957193
-2.8198991e-05
-2.3898863e-05
-2.4037313e-05
-8.8973188e-06
-1.8819149e-05
-3.9038493e-06
-4.5331825e-05
-1.9134134e-05
-0.014031643
-8.0810298e-06
0.013834921
0.00039350164
-4.8219802e-05
-3.7577988e-05
-3.8438261e-05
-0.00019752315
-0.01372685
3.3260916e-05
-5.3668949e-05
0.013525683
0.00041909697
-3.7150789e-05
-0.014331292
-6.8143213e-05
0.014152878
0.00031113104
6.7890459e-05
-3.4988891e-05
-3.0166584e-05
-3.0155704e-05
-1.4621708e-05
-0.0036535404
1.4212221e-05
-1.0461323e-05
0.0036393483
2.5063891e-05
-0.0031634489
2.8417535e-06
-1.2039846e-06
0.0031552816
6.5312369e-06
-4.1800195e-06
-0.0043551044
-2.4236041e-06
5.1974683e-06
0.0043443899
1.2121892e-05
-2.4436039e-05
-9.1661688e-06
-0.014196518
3.2045828e-05
0.014054354
0.00024568623
-2.7850695e-05
-2.2778919e-05
-2.3355241e-05
-6.3081082e-06
-1.8492916e-05
-3.1790036e-06
-4.4939685e-05
-1.3984299e-05
-0.013649046
-1.2397715e-05
0.013477056
0.00036698698
-4.8370293e-05
-3.7085556e-05
-3.8219388e-05
-0.00019536561
-0.013338816
3.8619247e-05
-6.0338777e-05
0.013167993
0.00038790848
-3.6338594e-05
-0.013979407
-7.3059865e-05
0.013814363
0.00029132258
7.413137e-05
-3.3730922e-05
-2.892319e-05
-2.8354157e-05
-1.3871085e-05
-0.0036063499
1.3102238e-05
-8.9577761e-06
0.0035914073
2.4670466e-05
-0.0031317894
2.3261549e-06
-1.2413338e-06
0.0031243372
6.3674208e-06
-3.5903781e-06
-0.0043153878
-1.9181184e-06
4.0040178e-06
0.0043059764
1.0917227e-05
-2.2716057e-05
-6.7921009e-06
-0.013917191
2.3673973e-05
0.013787851
0.00022617761
-2.6608959e-05
-2.0945704e-05
-2.1557973e-05
-4.0692335e-06
-1.688101e-05
-9.383497e-07
-4.4078934e-05
-6.6671648e-06
-0.013320564
-1.7451756e-05
0.013180694
0.00032686034
-4.743231e-05
-3.5311841e-05
-3.6048035e-05
-0.00018170708
-0.013014077
4.2917206e-05
-6.4263697e-05
0.012877419
0.00033971381
-3.4876218e-05
-0.013660809
-7.4620644e-05
0.013520981
0.00025716543
7.6667368e-05
-3.1831148e-05
-2.669111e-05
-2.5981881e-05
-1.2790653e-05
-0.0035564729
1.2572445e-05
-8.0303621e-06
0.0035411576
2.3564906e-05
-0.0031036723
1.9561581e-06
-1.2306378e-06
0.0030972785
5.6672021e-06
-3.0862894e-06
-0.0042807071
-1.4522275e-06
2.9230347e-06
0.0042724313
9.8913815e-06
-2.1101687e-05
-4.8209544e-06
-0.013669864
1.1568572e-05
0.013568063
0.00019370805
-2.5700439e-05
-1.917456e-05
-1.886936e-05
-1.8828734e-06
-1.4949349e-05
3.0260604e-06
-4.2628297e-05
3.9398807e-06
-0.013058594
-2.4360953e-05
0.012956012
0.00027431035
-4.5794659e-05
-3.1382032e-05
-3.150006e-05
-0.00016160375
-0.012758071
4.6308147e-05
-6.4555472e-05
0.012656362
0.00028156244
-3.3564913e-05
-0.013396961
-7.141575e-05
0.013292105
0.00021140626
7.4284582e-05
-3.0405144e-05
-2.301611e-05
-2.2428663e-05
-1.17601e-05
-0.0035067936
1.2494135e-05
-7.8925535e-06
0.0034920745
2.1878509e-05
-0.0030797525
1.775064e-06
-1.1851732e-06
0.0030743224
4.8394816e-06
-2.7715678e-06
-0.0042505316
-8.6818505e-07
1.6782033e-06
0.0042435134
8.9796546e-06
-1.9109192e-05
-2.0650654e-06
-0.013490733
-1.5234673e-05
0.013455855
0.00011855247
-2.4993486e-05
-1.5432498e-05
-1.1559317e-05
2.721662e-06
-1.1599617e-05
1.360344e-05
-4.0895724e-05
2.8194176e-05
-0.01287695
-4.025814e-05
0.012831082
0.00018893783
-4.4343176e-05
-2.2232604e-05
-2.3529229e-05
-0.00014220291
-0.012573537
4.8952941e-05
-5.4527139e-05
0.01251319
0.00020813003
-3.1772152e-05
-0.01321308
-5.2564667e-05
0.013174804
0.00012040357
5.7003017e-05
-2.8486665e-05
-1.3381548e-05
-1.2919358e-05
-9.7536169e-06
-0.0034638113
1.1604043e-05
-7.3175199e-06
0.0034521918
1.708745e-05
-0.0030594317
1.7340612e-06
-1.1568045e-06
0.0030548543
3.9997109e-06
-6.4861921e-06
-2.8454491e-06
-0.0042274211
4.026489e-06
0.0042186698
1.4056759e-05
-1.0574268e-05
1.3070983e-05
-7.3983105e-05
-6.3536723e-05
-1.5851612e-05
2.0479021e-06
2.5867275e-05
-0.013487421
0.0034609338
0.003411953
0.0033655323
0.0032927982
2.3998448e-05
8.8175458e-06
4.6353961e-05
-2.5210542e-05
8.6314645e-05
-6.7914348e-05
9.5644478e-05
0.0032700453
0.0032175257
0.003103503
0.0031375351
-0.012797931
-4.016357e-05
1.9623589e-05
1.0335957e-06
-0.00014376689
5.1159256e-05
-3.1669409e-05
0.00014623319
0.0031511449
0.0031723804
0.0030730117
0.0030602512
-0.012478738
-6.5656946e-06
4.7985918e-06
-1.1741983e-06
-1.563196e-05
-0.01316803
0.0033310267
0.0033620082
0.0032267
0.0031848812
-7.0530783e-06
4.5161913e-05
4.3884479e-05
-6.0201297e-06
-0.0034600088
-1.582673e-06
1.5691112e-06
0.0034836771
-1.7633308e-05
4.6229194e-06
-0.00304207
-5.6709581e-06
0.0030306832
1.2434756e-05
-2.2260284e-05
-2.1296427e-05
1.616463e-05
0.0030824047
1.6054239e-05
-3.6273973e-05
-2.7406674e-05
0.0028575439
2.1817421e-05
2.9002746e-05
-1.9043296e-05
-9.0348021e-06
0.0027800093
5.9915563e-06
1.0672832e-05
-6.7768467e-06
-2.0260634e-06
1.2138621e-06
0.0027620161
3.3773523e-06
-3.4439575e-06
6.6859188e-09
-3.5107835e-07
0.0027587184
1.689079e-06
-8.795458e-06
2.0328894e-06
-2.7694521e-06
0.0027637599
4.4727648e-06
-2.3916493e-05
9.037731e-06
-1.2172249e-05
0.0027902858
1.4134381e-05
-3.4948379e-05
2.7385845e-05
-2.9312298e-05
0.0029008415
3.3642227e-05
-2.5643047e-05
2.1659587e-05
-8.3316606e-07
0.0031928044
2.4553953e-05
-0.0028938086
-1.2285719e-06
-1.5412305e-06
6.7862226e-06
6.7661253e-06
0.0028830315
-0.00012014269
-0.011355192
-9.4184747e-05
9.7577886e-05
0.011340178
0.00013179431
-0.011221079
-0.00013665559
-7.9245852e-05
5.697789e-05
0.011275744
0.00010429546
-0.011116367
-8.1864522e-05
-3.6417541e-05
1.7580952e-05
0.011158014
5.9091746e-05
-0.011089423
-6.0603574e-05
1.0542396e-07
-1.7778534e-05
0.011122026
4.5713859e-05
-0.011159299
-0.00011129754
3.6620387e-05
-5.7141677e-05
0.011210529
8.0629323e-05
-0.00014808699
-0.011289481
7.9361846e-05
-9.7484368e-05
0.011332096
0.00012363694
-0.011517602
-3.0795918e-05
0.011413756
0.0001164011
9.3230607e-05
-1.1901563e-05
-2.5253522e-06
-3.3298925e-06
-1.4674236e-05
-4.2235635e-05
-3.11481e-06
2.8256829e-06
-0.0032353264
4.3364128e-07
1.8860616e-06
-5.6616035e-08
1.7616066e-06
0.0032313082
1.4747377e-06
1.4931193e-06
-0.0028754111
-1.5158432e-06
0.002875455
-1.490777e-06
-1.9510177e-06
-4.62242e-06
-0.01129684
1.3887331e-05
0.011270242
1.9319109e-05
-1.6402888e-05
-0.011304026
-1.8010504e-05
1.5937063e-05
0.011297175
2.5369944e-05
-4.185792e-06
-0.011185476
-1.0929082e-05
5.9811469e-06
0.011199153
-4.5010357e-06
5.549508e-06
-0.011144327
1.9736416e-07
-6.3595775e-06
0.011158898
-1.3912636e-05
-1.371758e-05
-0.011244146
1.1309668e-05
-1.6288662e-05
0.011252061
1.0828725e-05
-1.1247193e-05
-0.01133003
1.8360363e-05
-1.4259436e-05
0.011308767
2.8458674e-05
-1.5133632e-06
-0.011346748
0.01131871
4.7132258e-06
4.1456223e-06
2.4238512e-06
4.6020309e-06
5.1526016e-06
1.0256686e-06
5.8676068e-06
1.2229246e-05
-1.0573097e-05
7.4466909e-07
-0.0032307297
-1.2028271e-06
5.350057e-07
0.0032315391
-8.8040809e-07
3.8198341e-06
3.8629214e-06
-0.0028823898
-5.5963651e-06
0.0028858887
-5.5801085e-06
5.2855845e-05
4.1278268e-05
-0.011265288
-4.3104276e-05
0.011277347
-6.3046697e-05
7.9085011e-05
-0.01129115
4.0873358e-05
-3.4265749e-05
0.011295592
-9.0084155e-05
0.00010120196
-0.011197119
2.4823427e-05
-1.302881e-05
0.011198587
-0.00011441674
0.00010701771
-0.011159705
3.2459957e-07
1.2404084e-05
0.011160977
-0.00012096743
9.132615e-05
-0.011248049
-2.4216086e-05
3.3721852e-05
0.01125063
-0.00010335997
6.6894448e-05
-0.01130268
-4.0352714e-05
4.2598959e-05
0.011310405
-7.6810357e-05
9.6032364e-06
-0.011318497
0.011333885
-4.9837345e-05
-4.1598987e-05
9.4075569e-06
1.0121734e-05
1.0995719e-05
7.4465523e-06
1.1180519e-05
1.7372399e-05
-4.5130525e-08
1.4881125e-06
-0.0032416658
-3.5638513e-06
1.252438e-06
0.0032455253
-3.030365e-06
6.7198266e-06
6.7751435e-06
-0.002901866
-1.0222738e-05
0.0029088098
-1.0209668e-05
0.00010532546
8.4454894e-05
-0.011304031
-9.4574386e-05
0.011346179
-0.00013730508
0.00016901269
-0.011310555
9.4460601e-05
-8.2829516e-05
0.011337166
-0.00020719209
0.00021585535
-0.011205534
6.1670565e-05
-3.3050825e-05
0.01121981
-0.00025869592
0.00022666105
-0.011166224
4.7242196e-07
3.2144852e-05
0.011177606
-0.0002706024
0.00019607155
-0.011260943
-6.0810023e-05
8.2080556e-05
0.011280568
-0.00023690579
0.00013926562
-0.011330994
-9.3780794e-05
9.3942733e-05
0.011365412
-0.00017378122
1.9012272e-05
-0.011367996
0.011415543
-0.00010113878
-8.4658925e-05
1.7029504e-05
1.8063676e-05
1.8541502e-05
1.4342474e-05
1.8003718e-05
2.4683393e-05
8.6071774e-06
2.4681346e-06
-0.0032649928
-6.4593986e-06
2.1963018e-06
0.00327245
-5.6577784e-06
1.0925002e-05
1.0986121e-05
-0.0029362388
-1.6811109e-05
0.0029479494
-1.6804049e-05
0.00017657759
0.00014234065
-0.011405224
-0.00016257643
0.011484963
-0.00023601568
0.00029118479
-0.011377648
0.0001652529
-0.00014720455
0.011435823
-0.0003673298
0.00037760264
-0.011244006
0.00011084304
-5.9810242e-05
0.011282094
-0.00046665571
0.00039774622
-0.011197756
6.6990074e-07
5.853373e-05
0.011230715
-0.00048983928
0.00034088524
-0.01131189
-0.00010966233
0.0001462115
0.011358891
-0.00042436297
0.00023683023
-0.011415451
-0.00016439409
0.00016183143
0.011484978
-0.00030371073
3.106038e-05
-0.011483991
0.0115708
-0.00017005408
-0.00014246806
2.7747309e-05
3.0105796e-05
2.95377e-05
2.4014486e-05
2.7946317e-05
3.5797034e-05
1.9546724e-05
3.8998933e-06
-0.0033047633
-1.065476e-05
3.5919424e-06
0.0033173864
-9.4575379e-06
1.6856202e-05
1.6915038e-05
-0.0029917424
-2.6096245e-05
0.0030101758
-2.6104858e-05
0.00027687363
0.00022351695
-0.011589349
-0.00025886788
0.011724453
-0.00037652806
0.00046756938
-0.011517077
0.00026694758
-0.00024111943
0.011628976
-0.0006051942
0.0006178928
-0.011340008
0.0001835995
-9.9752106e-05
0.011426491
-0.00078812722
0.00065382902
-0.011282416
9.6950308e-07
9.7938323e-05
0.011361881
-0.00083209833
0.00055327348
-0.011427258
-0.00018199841
0.00023986325
0.011525299
-0.00070907826
0.00037560974
-0.011578639
-0.00026594425
0.0002580736
0.011703332
-0.00049232526
4.7690458e-05
-0.011685696
0.011827612
-0.00026684913
-0.00022363645
4.2814928e-05
4.7338341e-05
4.4941469e-05
3.7598329e-05
4.1876589e-05
5.1756738e-05
3.4599464e-05
5.9177638e-06
-0.00336825
-1.6573843e-05
5.5770235e-06
0.0033881632
-1.4834509e-05
2.441585e-05
2.4459627e-05
-0.0030762957
-3.7986124e-05
0.0031034341
-3.80298e-05
0.00040701893
0.00032864809
-0.011896006
-0.00038646498
0.012111026
-0.00056414195
0.00070713723
-0.011781178
0.00040522151
-0.00037216082
0.011985854
-0.00094477301
0.0009578452
-0.011554104
0.00028734262
-0.00015750591
0.011739081
-0.001272555
0.0010198192
-0.011482182
1.4778671e-06
0.00015484057
0.011660429
-0.0013542718
0.00084854388
-0.01166427
-0.00028519862
0.00037068499
0.011858771
-0.0011284199
0.00055960925
-0.011866647
-0.00040421049
0.00038577253
0.012078071
-0.00075249082
6.9149089e-05
-0.012007307
0.012223341
-0.00039253345
-0.00032892072
6.209617e-05
6.9414475e-05
6.4234695e-05
5.4955924e-05
5.9308291e-05
7.229696e-05
5.4012833e-05
8.4828591e-06
-0.0034641609
-2.4124833e-05
8.128905e-06
0.0034934125
-2.1740517e-05
3.2351403e-05
3.2354743e-05
-0.0031963071
-5.056597e-05
0.0032328336
-5.0672555e-05
0.0005472087
0.00044134997
-0.012374462
-0.00052789322
0.012689378
-0.00077556696
0.00098345172
-0.012255416
0.00056364612
-0.00052653478
0.01260332
-0.00136846
0.0013728685
-0.012004382
0.00041207683
-0.00022831126
0.012402356
-0.0019546097
0.0014737557
-0.011924932
2.2338225e-06
0.00022449551
0.012338084
-0.0021136337
0.0012003876
-0.012125246
-0.0004094299
0.0005250408
0.01249523
-0.0016859696
0.0007645879
-0.012346226
-0.00056298363
0.00052764525
0.012677392
-0.0010603752
9.2381783e-05
-0.012484662
0.012785021
-0.00052804807
-0.00044206229
8.2425942e-05
9.2455329e-05
8.3647437e-05
7.3193072e-05
7.679746e-05
9.3893817e-05
7.5004046e-05
1.1166497e-05
-0.0035990564
-3.205616e-05
1.0839442e-05
0.0036381876
-2.9086625e-05
3.7636962e-05
3.7569828e-05
-0.003350195
-5.9066896e-05
0.0033933079
-5.9268383e-05
0.0006420472
0.00051588918
-0.013051482
-0.00062560682
0.013449269
-0.00093017406
0.001196013
-0.013052012
0.00068171119
-0.00065742611
0.013605745
-0.0017741163
0.001748043
-0.012961919
0.00053685157
-0.00030830394
0.013602769
-0.0026175226
0.0019046787
-0.0129153
6.5482332e-06
0.00029837986
0.013544958
-0.0028393458
0.001496552
-0.013009196
-0.00053288689
0.00065743596
0.01363251
-0.0022444943
0.00091111448
-0.013073386
-0.0006828679
0.00062655848
0.013533997
-0.0013154761
0.00010891336
-0.013125409
0.013486874
-0.00061954345
-0.00051746958
9.5770399e-05
0.00010699388
9.4570358e-05
8.5045965e-05
8.6561251e-05
0.00010782751
8.9817178e-05
1.2944505e-05
-0.0037702826
-3.7339816e-05
1.2704407e-05
0.0038161089
-3.4150372e-05
3.6217793e-05
3.6053732e-05
-0.003520016
-5.6918218e-05
0.0035618869
-5.7235082e-05
0.00061025721
0.00048699047
-0.013862664
-0.00059757706
0.014262887
-0.00089999261
0.0011654474
-0.014199851
0.00067259956
-0.00066433134
0.014712549
-0.0016865254
0.0016925642
-0.014160285
0.00053789565
-0.00031383032
0.014492883
-0.0022493214
0.0018308212
-0.014056993
3.4884332e-05
0.00025357603
0.014331994
-0.0023943719
0.0014712317
-0.014238432
-0.00050040599
0.00064984367
0.014670276
-0.0020526117
0.00087553121
-0.014037883
-0.00067212018
0.0006005907
0.014529624
-0.0012958542
0.00010638735
-0.013855821
0.014200007
-0.00058798187
-0.00049010939
9.1048794e-05
0.00010061265
8.6422026e-05
8.052703e-05
7.9046897e-05
0.00010259032
8.7167809e-05
1.2458432e-05
-0.003957516
-3.5923436e-05
1.2371412e-05
0.0040018101
-3.3218017e-05
2.6575858e-05
2.6308176e-05
-0.0036706065
-4.154912e-05
0.0037012347
-4.1975846e-05
0.00042846673
0.00034045371
-0.014615334
-0.00042301865
0.014889664
-0.00062032962
0.00077397904
-0.015030973
0.00046506349
-0.00042628893
0.01511087
-0.00089273827
0.00099481377
-0.014543998
0.00033060134
-0.00020850334
0.014339778
-0.00091276115
0.0010446529
-0.01432194
7.3743964e-05
7.4113943e-05
0.014068379
-0.00093901774
0.00093239662
-0.014840113
-0.00022894858
0.00036658308
0.014746065
-0.0009760615
0.00061136435
-0.01492659
-0.00044248033
0.00042113743
0.015166626
-0.00083016245
7.9726978e-05
-0.014502214
0.014738511
-0.00041227038
-0.00034443737
6.4384867e-05
7.0595293e-05
5.7760188e-05
5.6312132e-05
5.3146784e-05
7.5749101e-05
6.2628122e-05
9.225569e-06
-0.0041231098
-2.6282016e-05
9.2918733e-06
0.004155721
-2.4860085e-05
1.2858628e-05
1.251452e-05
-0.0037686066
-1.973025e-05
0.0037831701
-2.0216159e-05
0.0001909108
0.00015339747
-0.015060974
-0.00018479307
0.015125285
-0.00022389624
0.00024652205
-0.014975789
0.00016758711
-0.00011947006
0.014691233
-1.013808e-05
0.00013094323
-0.013965474
8.4715193e-05
-8.2069883e-05
0.013512183
0.00031965954
0.00011129848
-0.013658153
9.9662627e-05
-0.00010594217
0.013180664
0.00037242775
0.00022586684
-0.014456567
7.0376022e-05
1.1824781e-05
0.014058651
8.9798266e-05
0.00024672708
-0.015228641
-0.00011048176
0.00016673075
0.01512904
-0.00020344547
4.1781643e-05
-0.014907938
0.015006657
-0.0001844183
-0.00015426988
2.8284524e-05
3.2175961e-05
2.2813281e-05
2.3779139e-05
2.1789678e-05
4.1211639e-05