/*--------------------------------*- C++ -*----------------------------------*\
  =========                 |
  \\      /  F ield         | OpenFOAM: The Open Source CFD Toolbox
   \\    /   O peration     | Website:  https://openfoam.org
    \\  /    A nd           | Version:  8
     \\/     M anipulation  |
\*---------------------------------------------------------------------------*/
FoamFile
{
    version     2.0;
    format      ascii;
    class       volVectorField;
    location    "200";
    object      U;
}
// * * * * * * * * * * * * * * * * * * * * * * * * * * * * * * * * * * * * * //

dimensions      [0 1 -1 0 0 0 0];

internalField   nonuniform List<vector> 
72028
(
(0.0008155487 1.0011332 0.002560182)
(-2.5308381e-05 0.99998634 -2.8006886e-05)
(1.9741693e-05 1.0024421 3.7720663e-05)
(-3.3741318e-05 1.0007471 -0.00019108453)
(-3.229789e-05 1.0041901 -0.00013000726)
(-2.0861891e-05 1.0030796 -0.0004124351)
(-9.9800156e-05 1.0083827 -0.00026020741)
(-1.4543808e-05 1.0075996 -0.00074209471)
(-0.00020302217 1.0160335 -0.00044557462)
(-5.0322865e-06 1.0154285 -0.0012543508)
(-0.00036213407 1.0288635 -0.000720817)
(1.0688375e-05 1.0283513 -0.0020359997)
(-0.00060287048 1.0493276 -0.0011106551)
(3.5950305e-05 1.048856 -0.0031667565)
(-0.00094538509 1.0802909 -0.0016084311)
(6.895605e-05 1.0798387 -0.0046479988)
(-0.0013756483 1.1238841 -0.0021274902)
(9.8042949e-05 1.1234871 -0.00626365)
(-0.001798607 1.1790525 -0.0024547025)
(9.4628244e-05 1.1788198 -0.0074093709)
(-0.0020317981 1.2385305 -0.0023067546)
(2.7881478e-05 1.2385692 -0.0071847607)
(-0.0019387638 1.289267 -0.0016170166)
(-9.0002943e-05 1.2894917 -0.0052572716)
(-0.0015776222 1.3204399 -0.00072776921)
(-0.00019152706 1.3205817 -0.0025511295)
(-0.001127339 1.3310439 -2.2990067e-05)
(-0.0002383992 1.3310013 -0.00029716553)
(-0.00072363989 1.3272803 0.00039261013)
(-0.00024034087 1.3270819 0.0010110912)
(-0.0004405409 1.316089 0.00057597377)
(-0.00022632991 1.3158394 0.0015115246)
(-0.00021332327 1.302622 0.00060066593)
(-0.00022250219 1.3024138 0.0016346235)
(-3.1191372e-05 1.2896759 0.0005401037)
(-0.0002168404 1.2893851 0.0015587407)
(6.6300089e-05 1.2782608 0.00046450979)
(-0.00021547624 1.2777516 0.0013502363)
(8.7875114e-05 1.2683706 0.00039317262)
(-0.00022809883 1.2673951 0.0011670668)
(4.9433019e-06 1.2592906 0.00037910844)
(-0.00029508571 1.2577026 0.0011115818)
(-0.00014895891 1.2499067 0.00043634169)
(-0.00041517289 1.2475422 0.0012493547)
(-0.00014606228 1.000092 0.00067909249)
(-4.6566819e-05 1.0000098 -8.3208287e-05)
(-3.4221393e-05 1.0000127 -0.00016308347)
(4.4897707e-06 1.0000127 -0.00018726066)
(4.0635793e-05 1.0000115 -0.00015765241)
(3.1489687e-05 1.000016 -8.9810439e-05)
(-0.00026916609 0.99987567 -0.00013587764)
(-0.00018427349 1.0012248 -0.00023453031)
(-0.00066208421 1.0009341 -0.0016356183)
(-0.000388212 1.000803 -0.0023180964)
(0.00012485086 1.0007654 -0.0024222549)
(0.00055827236 1.0008512 -0.0020361097)
(0.0004885963 1.0007727 -0.00094080167)
(0.00012974968 1.0007294 -0.00024338966)
(-0.00045117188 1.0035702 -0.00062894027)
(-0.001402043 1.0032257 -0.0034859348)
(-0.00080722036 1.0028177 -0.0048989554)
(0.00026277996 1.002706 -0.0050949145)
(0.0011672927 1.0029933 -0.0043012341)
(0.0011207051 1.0030116 -0.0019945331)
(0.0002457667 1.0033328 -0.00039994047)
(-0.00084524987 1.0081287 -0.0011949827)
(-0.0025035512 1.0076059 -0.0062366715)
(-0.0014390413 1.0066973 -0.0087791368)
(0.00047068255 1.0064492 -0.0091366318)
(0.0020937149 1.0071025 -0.0076955905)
(0.001995014 1.0073747 -0.0035624625)
(0.00046162185 1.008038 -0.00066098003)
(-0.0014507579 1.0160604 -0.002043645)
(-0.0042178233 1.0152238 -0.010502837)
(-0.0024295647 1.013532 -0.014842656)
(0.0008020459 1.0130647 -0.015472962)
(0.0035479108 1.0142981 -0.012983187)
(0.0033302497 1.0149582 -0.0059942042)
(0.000804836 1.0160755 -0.0010806597)
(-0.002367277 1.0291599 -0.0033143509)
(-0.0068423535 1.0279514 -0.017003724)
(-0.0039629006 1.0251638 -0.024181086)
(0.0013213319 1.0243859 -0.02526921)
(0.0057889855 1.0264393 -0.021087999)
(0.0053416125 1.0275478 -0.0096934025)
(0.0013302681 1.0292684 -0.0017197488)
(-0.0036800888 1.0498843 -0.0051265893)
(-0.010644005 1.0484962 -0.02635864)
(-0.0062193743 1.0444264 -0.037829071)
(0.0020904011 1.0432804 -0.039665678)
(0.0090563601 1.0463026 -0.032854789)
(0.0081779759 1.0476747 -0.01501853)
(0.0020886574 1.0500791 -0.0026285833)
(-0.0053735988 1.0810107 -0.0074684862)
(-0.015606252 1.0802287 -0.03846429)
(-0.0092294379 1.0752212 -0.055884087)
(0.0031155906 1.073801 -0.058871202)
(0.013349911 1.0775406 -0.048282872)
(0.011723296 1.0783773 -0.021953079)
(0.0030697935 1.0812598 -0.0037908311)
(-0.0071695251 1.1244677 -0.0099908967)
(-0.020916912 1.126066 -0.051276918)
(-0.012543246 1.1216987 -0.075567788)
(0.0042243781 1.120449 -0.080092504)
(0.0179669 1.1237175 -0.064918535)
(0.015249539 1.1221298 -0.029469397)
(0.0041069113 1.1246797 -0.0050212357)
(-0.0083807398 1.1789963 -0.01179022)
(-0.024371526 1.1854789 -0.059454319)
(-0.014738251 1.1847685 -0.088253789)
(0.0049042284 1.1846341 -0.094026411)
(0.020881091 1.1850363 -0.07572955)
(0.017135929 1.1783353 -0.034818583)
(0.0047883488 1.1790072 -0.0058688224)
(-0.0080881295 1.2374879 -0.011579813)
(-0.02291372 1.2498036 -0.055357359)
(-0.014030292 1.2569634 -0.081415333)
(0.0046106855 1.25971 -0.087504608)
(0.019506222 1.2531524 -0.070214756)
(0.015348 1.2397269 -0.034041415)
(0.0045624844 1.2371608 -0.0057254657)
(-0.0059927168 1.2876006 -0.0087927404)
(-0.016144061 1.3032706 -0.037717642)
(-0.010399356 1.3194187 -0.056145657)
(0.0031363019 1.3247097 -0.061840775)
(0.013838624 1.3112165 -0.048024987)
(0.0095461646 1.2921047 -0.025452242)
(0.0032409854 1.2870093 -0.0043676323)
(-0.0030613622 1.3189364 -0.0046329671)
(-0.0075478806 1.3339222 -0.016334311)
(-0.0055391871 1.3510298 -0.024817375)
(0.000961443 1.3546415 -0.028636866)
(0.0062594893 1.3434563 -0.021242404)
(0.002464061 1.323703 -0.013096814)
(0.0014257295 1.3183487 -0.0024186929)
(-0.00058553844 1.3301281 -0.00094427178)
(-0.00071567474 1.3414023 -1.3562993e-05)
(-0.0020512795 1.3495505 0.00081144799)
(-0.0010634074 1.3486464 -0.00032447223)
(0.0002387755 1.3473991 -0.00037612525)
(-0.0027623057 1.3339383 -0.0026212754)
(-4.9216009e-05 1.3297463 -0.00074535351)
(0.00092357403 1.3268358 0.001419583)
(0.0031391212 1.3323958 0.0093281893)
(7.3178288e-05 1.3261913 0.017077083)
(-0.0026878392 1.3200314 0.017976295)
(-0.0038412245 1.3315872 0.012647616)
(-0.0050281448 1.3296048 0.0038457696)
(-0.00086193282 1.3267076 0.00035094973)
(0.001561905 1.3159563 0.0025291751)
(0.0046588414 1.3134871 0.014005459)
(0.00076489437 1.2915672 0.024616873)
(-0.0039229098 1.2813772 0.02613051)
(-0.006197684 1.3040821 0.019290356)
(-0.0050864029 1.3177054 0.0067686861)
(-0.0011137556 1.3160123 0.00096777032)
(0.0016890116 1.3025819 0.0029066515)
(0.0048033572 1.2891979 0.015957385)
(0.00076166213 1.2549087 0.026673)
(-0.0048986059 1.2426072 0.029358045)
(-0.0073806172 1.2721398 0.021084568)
(-0.0042501216 1.302359 0.0074167164)
(-0.0010446672 1.3027385 0.0012647751)
(0.0015418227 1.2895344 0.0028246955)
(0.0042678784 1.2630568 0.016095986)
(0.00038672252 1.2210074 0.026534297)
(-0.0055173294 1.2081349 0.029388939)
(-0.0080400267 1.2407419 0.020591426)
(-0.0034731623 1.2852319 0.0071182798)
(-0.00086880092 1.2897829 0.0013353116)
(0.0013116384 1.2778322 0.0025403339)
(0.0035054215 1.2375653 0.015557629)
(-8.7421317e-05 1.1917797 0.025603447)
(-0.0059754624 1.179131 0.027752256)
(-0.0084431191 1.2122992 0.019521451)
(-0.0032205466 1.2669665 0.0067472192)
(-0.00073588951 1.2783266 0.0012480815)
(0.0010614149 1.2673801 0.0023104301)
(0.0027419001 1.2140054 0.014952008)
(-0.00059391378 1.1673796 0.024086276)
(-0.0063132053 1.1553276 0.025586573)
(-0.0087232418 1.1876672 0.018464874)
(-0.0034433647 1.2482711 0.0065788369)
(-0.00066881386 1.2684458 0.0010755975)
(0.00088786033 1.2574272 0.002306218)
(0.0022281693 1.1928869 0.014859334)
(-0.0010745189 1.1471297 0.022599886)
(-0.006520823 1.1358437 0.023567156)
(-0.0088918412 1.1665876 0.017409202)
(-0.0039982392 1.2299352 0.0066179981)
(-0.00067896429 1.2594955 0.00095123098)
(0.00081087247 1.2469774 0.0025373012)
(0.0018520155 1.1734989 0.01513651)
(-0.0014964707 1.1298656 0.021772385)
(-0.0066578055 1.119857 0.022252028)
(-0.0091524847 1.1478196 0.016954511)
(-0.0047046275 1.2122764 0.0069758429)
(-0.00084502122 1.2503073 0.0010243227)
(-6.6668233e-05 1.0000012 -6.9389254e-05)
(-0.00012179268 1.0000156 -0.00015829296)
(-0.00012864228 1.0000184 -0.00025798816)
(-7.5921642e-05 1.0000175 -0.00032569404)
(1.1688428e-05 1.0000141 -0.00034544036)
(9.3607655e-05 1.0000102 -0.00031174792)
(0.00013182848 1.0000072 -0.00023345048)
(0.00010678915 1.0000064 -0.00012883141)
(9.8255641e-05 0.99997641 -6.1637235e-05)
(-0.00053088872 1.0006967 -0.00052742947)
(-0.0015917708 1.0007539 -0.0021175906)
(-0.0015735644 1.0004258 -0.0032722729)
(-0.00084133282 1.0001679 -0.0040413644)
(0.00027688775 1.0001058 -0.0042082561)
(0.0012626507 1.0002774 -0.0037267568)
(0.0016632542 1.0005928 -0.0027327497)
(0.0013154352 1.0008894 -0.0015183681)
(0.00026253322 1.0006811 -0.00024647881)
(-0.0011730446 1.0030196 -0.0011664473)
(-0.0033099686 1.0026799 -0.0044190376)
(-0.0032988808 1.0015461 -0.0068527651)
(-0.001771253 1.0006381 -0.0085113159)
(0.00058840692 1.0004189 -0.0088671864)
(0.0026555211 1.0010266 -0.0078283133)
(0.0034774913 1.0021212 -0.0057082195)
(0.0027873072 1.0031327 -0.0032144732)
(0.00059673841 1.0030683 -0.00054223121)
(-0.0021135548 1.0075483 -0.0021038705)
(-0.0059011445 1.0063937 -0.007898856)
(-0.0059425354 1.0038013 -0.012339297)
(-0.0032061891 1.0016905 -0.015419752)
(0.0010743355 1.0011795 -0.016082787)
(0.0048056341 1.0025984 -0.014142668)
(0.0062515336 1.0051137 -0.010236419)
(0.0049872193 1.0074366 -0.0057392956)
(0.0010784771 1.0077064 -0.00097523734)
(-0.0035568538 1.0154057 -0.0035447076)
(-0.009959223 1.0129764 -0.013346698)
(-0.010160389 1.0080479 -0.021092078)
(-0.0055288023 1.003949 -0.026605032)
(0.0018688723 1.0029481 -0.027807261)
(0.0082757016 1.0057209 -0.024300271)
(0.010645994 1.0105509 -0.017389172)
(0.0084012996 1.0149518 -0.0096447817)
(0.001813411 1.0157341 -0.0016386441)
(-0.0057353099 1.0283856 -0.0057226752)
(-0.016212855 1.0242856 -0.021736486)
(-0.016841147 1.0159686 -0.034946182)
(-0.0092905456 1.0088312 -0.044703212)
(0.0031679033 1.0070607 -0.046879519)
(0.013854108 1.011939 -0.040579585)
(0.017520823 1.0202243 -0.028551736)
(0.01360071 1.0275588 -0.015578032)
(0.0029235763 1.0289476 -0.0026374814)
(-0.0088406199 1.0489685 -0.0088311034)
(-0.025346617 1.0432269 -0.033984684)
(-0.026995981 1.0306995 -0.055988411)
(-0.015197908 1.0194464 -0.073096115)
(0.0052263692 1.016583 -0.077037576)
(0.022504318 1.0243955 -0.065764147)
(0.027776621 1.037182 -0.04516512)
(0.021071483 1.0479927 -0.024083767)
(0.0045048065 1.0497954 -0.0040576506)
(-0.012826877 1.0799968 -0.012826565)
(-0.037411587 1.0738571 -0.0501718)
(-0.04119208 1.0577185 -0.085430992)
(-0.023852199 1.0422941 -0.11474858)
(0.0082674654 1.0381987 -0.12179484)
(0.034937965 1.0491572 -0.1019665)
(0.041733548 1.0661946 -0.067742003)
(0.030715606 1.079674 -0.035036327)
(0.006529251 1.0810158 -0.0058749274)
(-0.017053205 1.1235328 -0.017072495)
(-0.05056869 1.120535 -0.067888394)
(-0.057834625 1.1051143 -0.12033688)
(-0.034540256 1.0898358 -0.16676204)
(0.012108236 1.0859059 -0.17845058)
(0.049897669 1.0963769 -0.14624532)
(0.057605874 1.1134046 -0.093479703)
(0.040900067 1.1255751 -0.046565042)
(0.0086602598 1.1244534 -0.0077913706)
(-0.019951583 1.1784774 -0.020003409)
(-0.059409775 1.1843866 -0.080028865)
(-0.071012031 1.1831883 -0.14753124)
(-0.046631726 1.1866552 -0.21903997)
(0.016301443 1.1859336 -0.23935299)
(0.06445022 1.185111 -0.18599613)
(0.068844965 1.1827895 -0.11187503)
(0.047471515 1.1852244 -0.053952565)
(0.010083318 1.1787545 -0.00908304)
(-0.019399194 1.237735 -0.019493515)
(-0.055915872 1.2573592 -0.075627626)
(-0.072185013 1.2875885 -0.1473415)
(-0.046415929 1.2859363 -0.21046385)
(0.011845484 1.2777754 -0.22560619)
(0.063040542 1.2922347 -0.18550611)
(0.067300392 1.2710343 -0.10851468)
(0.04468847 1.2499991 -0.050667626)
(0.0097011749 1.2368471 -0.0087828264)
(-0.014591966 1.2885872 -0.01472976)
(-0.039668236 1.3208246 -0.053629729)
(-0.048469215 1.3451142 -0.094542141)
(-0.02883956 1.2957387 -0.1117329)
(-0.00016144569 1.2770478 -0.11540479)
(0.032356801 1.3232541 -0.10966913)
(0.047780754 1.3426049 -0.077191516)
(0.031195185 1.3037431 -0.035108654)
(0.0070770061 1.2866665 -0.0065488061)
(-0.007604589 1.3201427 -0.0077706211)
(-0.018811335 1.3525916 -0.024734336)
(-0.015802108 1.3221726 -0.023241687)
(-0.0082632227 1.2299106 0.00047348638)
(-0.011300649 1.2042646 0.0050976051)
(-0.0035274776 1.2727306 -0.016389591)
(0.016825583 1.3546153 -0.02944644)
(0.014033028 1.3344475 -0.015429091)
(0.0033016689 1.3180521 -0.0033674198)
(-0.0015152568 1.3311066 -0.0016758584)
(-0.0011508411 1.3470143 0.0010185424)
(0.0084589895 1.2586589 0.030931597)
(0.0036449196 1.1477848 0.066171691)
(-0.01711672 1.1198988 0.071921092)
(-0.026155453 1.1962956 0.045231558)
(-0.0091786431 1.3163909 0.0085966386)
(0.00060597467 1.3420763 -0.0003167139)
(5.6745663e-05 1.329531 -0.00062415052)
(0.0023525103 1.3274232 0.0022420368)
(0.010257591 1.3151687 0.018214791)
(0.019546183 1.1933294 0.057631107)
(0.0073827126 1.0819748 0.08940904)
(-0.018753282 1.0556068 0.093900601)
(-0.034808454 1.129176 0.069825161)
(-0.024896818 1.2604792 0.031352948)
(-0.0074752667 1.3323463 0.0085910877)
(-0.0018573198 1.3265528 0.00108267)
(0.0041198343 1.3161815 0.0041113625)
(0.015508822 1.2724452 0.026902047)
(0.021636414 1.1403929 0.064431349)
(0.0071313853 1.03747 0.089796694)
(-0.018416444 1.0139317 0.09259152)
(-0.035682264 1.0802667 0.073041374)
(-0.031206595 1.2076329 0.040219626)
(-0.011933571 1.3110085 0.012951848)
(-0.0025376576 1.3158877 0.0018867672)
(0.0045104836 1.3024855 0.0046245852)
(0.017144249 1.2307929 0.030311737)
(0.019720549 1.1013158 0.061704863)
(0.0053640423 1.0090686 0.080887054)
(-0.017291542 0.98842543 0.082352387)
(-0.033356412 1.0470039 0.066859302)
(-0.031867583 1.1644106 0.040420712)
(-0.014015292 1.2830966 0.01430651)
(-0.0024509972 1.3026225 0.0021010991)
(0.004135497 1.2888648 0.0044136965)
(0.016451143 1.1949519 0.030284221)
(0.016509155 1.073271 0.055401395)
(0.0032909272 0.99125948 0.069722125)
(-0.01597796 0.9732376 0.070259563)
(-0.030044799 1.0247464 0.057846807)
(-0.030054815 1.1309427 0.036819625)
(-0.014728516 1.2534268 0.014010113)
(-0.0021144385 1.2896268 0.0019728452)
(0.003538622 1.2756687 0.0040451048)
(0.014690377 1.1656261 0.028619282)
(0.013287384 1.0531222 0.04854666)
(0.0014586518 0.980106 0.059287667)
(-0.01475342 0.96429027 0.059139212)
(-0.026768449 1.0097496 0.049026034)
(-0.027513014 1.1054839 0.03222495)
(-0.014779848 1.2253223 0.013028878)
(-0.0017666358 1.2780544 0.0016751573)
(0.0030576743 1.2624032 0.0038869921)
(0.012712727 1.1419405 0.026482986)
(0.010526091 1.0383602 0.042434972)
(1.9011919e-05 0.97298483 0.050530767)
(-0.013685621 0.95899107 0.0498899)
(-0.023926707 0.99938297 0.041527006)
(-0.025060821 1.0860239 0.027924003)
(-0.014729977 1.2002617 0.012097637)
(-0.0015560818 1.267888 0.0013638562)
(0.0028572718 1.2483486 0.0041060664)
(0.011068031 1.1224135 0.024628185)
(0.0083555521 1.0268216 0.037547661)
(-0.0010525661 0.96818845 0.043593708)
(-0.012775453 0.95580828 0.042600709)
(-0.021627163 0.99171639 0.035600561)
(-0.02306822 1.0703781 0.024443792)
(-0.014663512 1.1784062 0.011301169)
(-0.0015763324 1.2582926 0.0011949852)
(0.003066663 1.2335653 0.0047979419)
(0.010074062 1.1050119 0.023612955)
(0.0068088569 1.0172357 0.033990008)
(-0.001809017 0.96499998 0.038364318)
(-0.012034884 0.95412402 0.037099635)
(-0.019891077 0.98582414 0.031204875)
(-0.021746019 1.0567417 0.022063593)
(-0.014937428 1.1586129 0.010968048)
(-0.0019110945 1.2480612 0.0012543664)
(0.00065739942 1.0000854 -0.00014123488)
(-0.00015864292 1.0000156 -0.00012124828)
(-0.00023046879 1.0000205 -0.00023001261)
(-0.00021694097 1.0000201 -0.00032957307)
(-0.00012270507 1.0000154 -0.00039869355)
(1.9225936e-05 1.0000091 -0.00041876501)
(0.00015345266 1.0000042 -0.00038434033)
(0.00022790085 1.0000019 -0.00030495858)
(0.00021764291 1.0000021 -0.00020111382)
(0.00012205158 1.0000044 -9.22262e-05)
(-0.0012202459 1.0006703 0.0011418884)
(-0.00023538927 1.0012106 -0.00017990103)
(-0.0021216479 1.000754 -0.0015868396)
(-0.0028719737 1.000241 -0.0028669131)
(-0.0025901768 0.99966444 -0.0040267727)
(-0.0013338704 0.99923281 -0.0047956544)
(0.00044329265 0.99913389 -0.0049629043)
(0.0020409532 0.99941496 -0.0044795669)
(0.0028468525 0.99994646 -0.0034846166)
(0.0025987735 1.0005152 -0.0022317299)
(0.0014683658 1.0009346 -0.0010091139)
(3.7897137e-05 1.0019393 8.6662804e-05)
(-0.00063471473 1.0035533 -0.00044243769)
(-0.0044265959 1.0026795 -0.0033007547)
(-0.0060233327 1.0009113 -0.0060140975)
(-0.0054867311 0.9988588 -0.0085298401)
(-0.0028443208 0.99729605 -0.0102269)
(0.00095046755 0.99693536 -0.010597947)
(0.0043457641 0.997958 -0.00952633)
(0.0060057671 0.9998686 -0.0073474305)
(0.0054352818 1.0018624 -0.0046643111)
(0.0031221541 1.0032532 -0.0021415803)
(0.00016888928 1.0039194 -4.7184109e-05)
(-0.001203826 1.0081118 -0.00083255892)
(-0.0079095851 1.0063924 -0.0058877854)
(-0.01087062 1.0023496 -0.010857399)
(-0.010040025 0.99752912 -0.015607194)
(-0.0052580049 0.99376865 -0.01890724)
(0.0017704298 0.99289071 -0.019637432)
(0.0080127063 0.99537151 -0.017534776)
(0.010925151 0.99991764 -0.013352735)
(0.0097721334 1.004535 -0.0083796195)
(0.0055810491 1.0076871 -0.003830142)
(0.00029821259 1.0083173 -0.00016984242)
(-0.002054608 1.0160421 -0.0014345811)
(-0.013359807 1.0129731 -0.0099423298)
(-0.018670746 1.005269 -0.018654325)
(-0.017599864 0.99575958 -0.027357654)
(-0.0093565346 0.9880906 -0.033651971)
(0.0031776692 0.98626791 -0.035073049)
(0.0141931 0.99138813 -0.031005845)
(0.018981705 1.0005161 -0.023173236)
(0.016654703 1.0094669 -0.014271506)
(0.0093889194 1.0153998 -0.0064453688)
(0.00048309186 1.0161942 -0.00034300329)
(-0.0033265777 1.0291378 -0.0023486088)
(-0.021750346 1.0242782 -0.016194392)
(-0.031175318 1.0112168 -0.031158141)
(-0.030296284 0.99422795 -0.047085336)
(-0.016482689 0.97983391 -0.059281699)
(0.0056523944 0.97632195 -0.062118033)
(0.024797694 0.98609983 -0.05407693)
(0.032219522 1.0028474 -0.039289493)
(0.027457608 1.0184199 -0.023514432)
(0.01517304 1.0282746 -0.010419586)
(0.0007573944 1.0292941 -0.00059945053)
(-0.0051388267 1.049854 -0.0036609228)
(-0.033997064 1.0432095 -0.025332871)
(-0.050513377 1.0233809 -0.050503705)
(-0.051306006 0.99548974 -0.079730939)
(-0.028909865 0.97009447 -0.10395892)
(0.010029381 0.96365779 -0.10983502)
(0.042896947 0.98133347 -0.093406741)
(0.053422843 1.0099406 -0.065077762)
(0.043657823 1.0345031 -0.037368849)
(0.023459172 1.0490076 -0.016117585)
(0.0011417215 1.0500512 -0.00096889967)
(-0.0074787455 1.0809664 -0.0053589824)
(-0.050179151 1.0738223 -0.037417282)
(-0.07827639 1.0478965 -0.078296107)
(-0.084513106 1.0068652 -0.13149038)
(-0.049926336 0.96571105 -0.17999346)
(0.017602228 0.9552578 -0.19249656)
(0.072572456 0.9840401 -0.15831302)
(0.085448375 1.028826 -0.10401609)
(0.065901196 1.0627888 -0.056372914)
(0.034117604 1.0808923 -0.023452201)
(0.0016215997 1.0812188 -0.0014570995)
(-0.0099970268 1.1244033 -0.0071673506)
(-0.067887706 1.1204738 -0.050622955)
(-0.11244503 1.0947995 -0.11253925)
(-0.13551914 1.0525071 -0.20998459)
(-0.090584662 0.99759798 -0.31934534)
(0.031357036 0.97702083 -0.34695844)
(0.12561611 1.0262857 -0.27011603)
(0.12805785 1.0743802 -0.15585483)
(0.091644419 1.1101551 -0.078293182)
(0.045318659 1.126649 -0.031158305)
(0.0021035802 1.1246882 -0.0020021829)
(-0.011790793 1.178913 -0.0084014153)
(-0.080023418 1.1842934 -0.059561085)
(-0.14331039 1.1820027 -0.14359312)
(-0.18518714 1.1415248 -0.28312156)
(-0.11346891 1.0087299 -0.38591959)
(0.029053754 0.96676082 -0.41274745)
(0.15335551 1.074644 -0.34576521)
(0.1753533 1.1778842 -0.21329039)
(0.11064768 1.181968 -0.094291603)
(0.052478415 1.1855201 -0.036062907)
(0.0023818683 1.1791456 -0.0024293687)
(-0.011576358 1.2373997 -0.0081387755)
(-0.075583427 1.2572591 -0.056241408)
(-0.14309477 1.2909688 -0.1414561)
(-0.14766281 1.1628749 -0.21641718)
(-0.089423631 0.97406788 -0.2645031)
(0.0057768169 0.92286611 -0.2848928)
(0.099992644 1.0595054 -0.25518465)
(0.15079914 1.2505628 -0.19109229)
(0.1090643 1.2766371 -0.093118106)
(0.049307919 1.2489661 -0.033853312)
(0.0021884012 1.2374757 -0.002502927)
(-0.0087881512 1.2875307 -0.0060694776)
(-0.05358805 1.3207933 -0.040006675)
(-0.083840465 1.3167846 -0.077305634)
(-0.053151186 1.1027124 -0.058474417)
(-0.031062303 0.89244779 -0.029236375)
(-0.023379358 0.8415424 -0.030842169)
(0.0024636951 0.98442732 -0.060127442)
(0.055303148 1.2220956 -0.083966076)
(0.07481192 1.3465322 -0.065510866)
(0.034252692 1.3014014 -0.023602508)
(0.0014333133 1.2874494 -0.0021453511)
(-0.0046301878 1.3188999 -0.003151254)
(-0.025076453 1.3526381 -0.018495965)
(-0.010347299 1.2596127 0.00060681933)
(0.024105213 0.99721793 0.06744201)
(0.01314251 0.77659723 0.13288255)
(-0.040400164 0.72308016 0.14261151)
(-0.065643834 0.87137796 0.085288511)
(-0.030101712 1.1321708 0.015118598)
(0.022645829 1.344583 -0.023288766)
(0.015120602 1.3314534 -0.010600635)
(0.00041276244 1.3187934 -0.0015884598)
(-0.00094711442 1.3301249 -0.00067600166)
(-0.00017956614 1.3470328 0.00055097917)
(0.03438762 1.1793025 0.047914909)
(0.056193946 0.91331501 0.11856986)
(0.026360501 0.71239531 0.1753854)
(-0.040807984 0.66609358 0.18212777)
(-0.085756408 0.79701582 0.1338019)
(-0.072132418 1.0446281 0.065019845)
(-0.019042054 1.292617 0.010072647)
(0.00031129808 1.3394318 -0.00037586922)
(-0.00044784092 1.3300947 -0.0010891298)
(0.0014052526 1.3268628 0.00084393815)
(0.015843278 1.315068 0.013671491)
(0.051459098 1.1116349 0.06612435)
(0.060180863 0.86866117 0.12393736)
(0.025060875 0.6992559 0.16339223)
(-0.036166149 0.66164037 0.16611017)
(-0.081981856 0.7694257 0.13153995)
(-0.082694315 0.98517161 0.078205423)
(-0.042224297 1.2304254 0.028014544)
(-0.0082506351 1.3317488 0.0054397789)
(-0.00094913167 1.3269104 -0.00074106154)
(0.0024975251 1.315997 0.0015012661)
(0.023354826 1.2722655 0.020542733)
(0.052757207 1.0635782 0.067751934)
(0.053098687 0.85109092 0.11127885)
(0.019778042 0.71098165 0.13730961)
(-0.031003071 0.68062737 0.13741126)
(-0.071057615 0.76833417 0.11287283)
(-0.078273679 0.95093003 0.07381244)
(-0.04966983 1.176309 0.033147982)
(-0.012538376 1.3142117 0.0077609875)
(-0.0011096674 1.3160925 -0.00046451263)
(0.0028500402 1.3026242 0.001651328)
(0.025767686 1.2305769 0.023490215)
(0.047390674 1.031629 0.062296171)
(0.043388289 0.84803008 0.09436058)
(0.01433031 0.73145103 0.11149018)
(-0.026508745 0.70659363 0.11012957)
(-0.059629698 0.77879831 0.092111599)
(-0.068843103 0.9330994 0.063443946)
(-0.048955849 1.1343629 0.031814218)
(-0.014437428 1.290871 0.0082746643)
(-0.0010080659 1.3027585 -0.00025054611)
(0.0027339377 1.2895698 0.0015430694)
(0.024951758 1.1947296 0.023798169)
(0.040186868 1.010854 0.054795408)
(0.034300815 0.8517022 0.078472869)
(0.0097887343 0.75325583 0.08986747)
(-0.022851165 0.73249071 0.087735206)
(-0.049736924 0.79302867 0.073936625)
(-0.058899276 0.92470784 0.05241965)
(-0.044919965 1.1031665 0.028015855)
(-0.014798039 1.2650348 0.0078633555)
(-0.00081877026 1.2897955 -0.00010953521)
(0.0024099721 1.2778552 0.001378825)
(0.022704434 1.1654113 0.022791431)
(0.033296813 0.99725715 0.047509821)
(0.026800634 0.85796913 0.065197996)
(0.0062989235 0.77345023 0.072847173)
(-0.019935931 0.75576846 0.070317733)
(-0.04174482 0.80746235 0.059347263)
(-0.050120574 0.92138945 0.042752646)
(-0.040089022 1.0800912 0.023761716)
(-0.014603307 1.2394206 0.0071597567)
(-0.00065164989 1.2783875 -2.9774542e-05)
(0.0021187512 1.2673827 0.0012545957)
(0.020144775 1.1417379 0.021373837)
(0.027503859 0.98799747 0.041288757)
(0.020949223 0.86473721 0.054655822)
(0.003722211 0.79118163 0.059768792)
(-0.017616151 0.77590671 0.057047205)
(-0.035464595 0.82067478 0.048063565)
(-0.042939583 0.92051126 0.03495046)
(-0.035619215 1.0627144 0.01995389)
(-0.014240224 1.2155184 0.0063563954)
(-0.00051510369 1.2686404 1.2390226e-05)
(0.0020076275 1.2573918 0.0013034141)
(0.017974306 1.1222236 0.020156008)
(0.022965388 0.98112154 0.036329709)
(0.016501329 0.87135194 0.046448705)
(0.0018532778 0.8066959 0.049759732)
(-0.015756294 0.79333547 0.046954894)
(-0.030566334 0.83255083 0.039443083)
(-0.037267841 0.92075802 0.028896403)
(-0.032021194 1.0488782 0.016944905)
(-0.014237702 1.1940066 0.0058255607)
(-0.00044257575 1.2599704 2.5134545e-05)
(0.0020763704 1.2468878 0.0015589991)
(0.016667401 1.1048551 0.019552731)
(0.01961765 0.97583537 0.03260257)
(0.013153634 0.87773406 0.040122317)
(0.00047011301 0.82028858 0.042030392)
(-0.014278134 0.80844505 0.039176628)
(-0.026758438 0.84322819 0.032832199)
(-0.03291772 0.92176804 0.024332794)
(-0.029482708 1.0370496 0.014839056)
(-0.014650201 1.1742432 0.0056010129)
(-0.00051918174 1.2512957 -2.3806153e-06)
(-8.4315334e-05 1.0000096 -4.6742897e-05)
(-0.00025837151 1.0000184 -0.0001280669)
(-0.00033002787 1.0000201 -0.0002163621)
(-0.00029889606 1.0000152 -0.00029831281)
(-0.00016624143 1.0000072 -0.00035509404)
(2.620903e-05 0.99999848 -0.0003717429)
(0.00020884953 0.99999281 -0.0003433584)
(0.00031688734 0.99999169 -0.00027809645)
(0.00031854289 0.99999479 -0.00019288007)
(0.00022250784 0.99999921 -0.00010532758)
(-8.6268122e-05 0.99999797 -5.2274069e-05)
(-0.0016384843 1.0009329 -0.00065676075)
(-0.0032759707 1.0004258 -0.0015672521)
(-0.0040318181 0.99966466 -0.0025835783)
(-0.0035160834 0.99883372 -0.0035093627)
(-0.001786504 0.99821688 -0.0041270481)
(0.00059624102 0.99807598 -0.0042620318)
(0.0027534834 0.99847692 -0.0038731915)
(0.0039201237 0.99923838 -0.0030761434)
(0.0037849728 1.0000649 -0.0020806109)
(0.002511936 1.000714 -0.0010885498)
(0.000697003 1.0009335 -0.00036183166)
(-0.0034912909 1.0032241 -0.0013916116)
(-0.0068595608 1.0015459 -0.0032870037)
(-0.0085390909 0.99885912 -0.0054742605)
(-0.0075364109 0.9958451 -0.0075236678)
(-0.0038583981 0.9935741 -0.0089173736)
(0.0012939849 0.99305259 -0.0092243268)
(0.005935154 0.99453481 -0.0083416751)
(0.0083609652 0.99732035 -0.0065585086)
(0.0079706121 1.0002849 -0.0043811626)
(0.0052500727 1.0025293 -0.0022675903)
(0.0017045738 1.0031968 -0.00073752788)
(-0.0062442625 1.0076032 -0.0024872875)
(-0.012348873 1.0038006 -0.0059244738)
(-0.015620418 0.99752947 -0.010021043)
(-0.014053652 0.99024455 -0.014034353)
(-0.0072904881 0.98459651 -0.01685822)
(0.0024629004 0.9832821 -0.017489734)
(0.011170074 0.98700275 -0.01568151)
(0.015460569 0.99384279 -0.012122578)
(0.014458474 1.0008865 -0.0079457106)
(0.0094081138 1.0060447 -0.0040540552)
(0.0031209999 1.0076129 -0.0013152694)
(-0.010512495 1.0152183 -0.0041946781)
(-0.021103882 1.0080448 -0.010135305)
(-0.027374214 0.99575877 -0.017573667)
(-0.025344827 0.9807781 -0.025318181)
(-0.013427057 0.96861915 -0.031064587)
(0.0045772827 0.96572505 -0.032382768)
(0.020421885 0.97385908 -0.028637479)
(0.027515826 0.98827958 -0.021565793)
(0.025014106 1.0024088 -0.013744985)
(0.015943416 1.0123109 -0.0068644525)
(0.005283162 1.0152819 -0.0022213484)
(-0.017015534 1.0279398 -0.0068106025)
(-0.034959873 1.0159585 -0.016808755)
(-0.047103388 0.99422147 -0.030263645)
(-0.045549574 0.96572163 -0.045516767)
(-0.024933585 0.94094014 -0.057723453)
(0.0085966251 0.93483308 -0.060633557)
(0.037451838 0.9518069 -0.052466833)
(0.048440411 0.98027504 -0.037953331)
(0.042199284 1.0061854 -0.023191997)
(0.026064989 1.0231628 -0.011224425)
(0.0085548899 1.0279929 -0.0036111591)
(-0.026374666 1.0484708 -0.010602584)
(-0.05600597 1.0306696 -0.026958418)
(-0.079745448 0.99546294 -0.051273829)
(-0.082326578 0.94406079 -0.082298865)
(-0.04730667 0.89444021 -0.10964022)
(0.016528517 0.88173379 -0.11642888)
(0.069745367 0.91674805 -0.097627781)
(0.084794021 0.97103603 -0.066419999)
(0.069377863 1.0153254 -0.038139683)
(0.040963416 1.0415397 -0.017652807)
(0.013239752 1.0482658 -0.0056253461)
(-0.038491453 1.0801782 -0.015556228)
(-0.085462817 1.057643 -0.041160926)
(-0.13149442 1.0067766 -0.084509146)
(-0.15058389 0.92129789 -0.15064707)
(-0.09938532 0.82656297 -0.22847808)
(0.035676055 0.79731896 -0.24886977)
(0.13807435 0.87246227 -0.19227124)
(0.14640024 0.96690863 -0.11453486)
(0.10971737 1.0365865 -0.060295237)
(0.06088204 1.0717107 -0.026250964)
(0.019284553 1.0790828 -0.0082574657)
(-0.051332967 1.1259784 -0.020863729)
(-0.1204244 1.1049483 -0.057841222)
(-0.20990708 1.0522887 -0.13574669)
(-0.27481104 0.90708509 -0.27233802)
(-0.16702979 0.67396891 -0.37563492)
(0.05184603 0.60715981 -0.40259276)
(0.23530279 0.78504057 -0.33528768)
(0.25928918 1.000966 -0.20434783)
(0.16168333 1.0830872 -0.088539689)
(0.083009286 1.1186119 -0.035755933)
(0.025708301 1.1227849 -0.011094859)
(-0.059573145 1.1853552 -0.024324239)
(-0.1476943 1.1829241 -0.071230358)
(-0.28568228 1.1411117 -0.18150102)
(-0.31160375 0.83449384 -0.29609179)
(-0.19829149 0.4587282 -0.4154514)
(0.043809199 0.35357316 -0.46020851)
(0.24844639 0.63387148 -0.37511854)
(0.30843294 1.0162942 -0.24876103)
(0.21631582 1.183261 -0.12020309)
(0.098041998 1.1841954 -0.042029556)
(0.030010545 1.1785808 -0.013035953)
(-0.055561539 1.2496744 -0.022891091)
(-0.14794905 1.2874307 -0.071784764)
(-0.2263995 1.1622621 -0.13271193)
(-0.22103982 0.76013495 -0.18585796)
(-0.17788082 0.46499967 -0.29980073)
(-0.01746312 0.29714654 -0.37564461)
(0.15134335 0.52663315 -0.26973695)
(0.20701656 0.97904458 -0.18081202)
(0.20025673 1.2736939 -0.11335916)
(0.092579023 1.2621961 -0.039904855)
(0.028701035 1.2391887 -0.012511848)
(-0.037951338 1.3031949 -0.01617829)
(-0.096644491 1.3449346 -0.044537806)
(-0.075028301 1.1021012 -0.027825599)
(-0.012415078 0.67359648 0.034600657)
(-0.026894009 0.40315528 0.049254023)
(-0.060364753 0.25361452 0.058724297)
(-0.047945041 0.4866464 -0.0084246985)
(0.014185625 0.89615124 -0.039371935)