/*--------------------------------*- C++ -*----------------------------------*\
  =========                 |
  \\      /  F ield         | OpenFOAM: The Open Source CFD Toolbox
   \\    /   O peration     | Website:  https://openfoam.org
    \\  /    A nd           | Version:  8
     \\/     M anipulation  |
\*---------------------------------------------------------------------------*/
FoamFile
{
    version     2.0;
    format      ascii;
    class       volScalarField;
    location    "226";
    object      k;
}
// * * * * * * * * * * * * * * * * * * * * * * * * * * * * * * * * * * * * * //

dimensions      [0 2 -2 0 0 0 0];

internalField   nonuniform List<scalar> 
72028
(
0.019677402
0.019687245
0.017012409
0.01700804
0.014895573
0.014891084
0.013239137
0.013235779
0.011911956
0.011909682
0.010832659
0.010831579
0.0099499228
0.0099506996
0.0092334429
0.0092377967
0.0086654827
0.0086766
0.0082257451
0.0082473485
0.0078722495
0.007904448
0.0075479934
0.0075831702
0.0072242
0.0072540933
0.0069103668
0.0069352506
0.0066204922
0.0066557272
0.0063619315
0.0064197457
0.0061556052
0.0063086854
0.0060334959
0.0063773212
0.0061056391
0.0067437322
0.0065061997
0.007581675
0.007499135
0.0090976375
0.0094446716
0.01142936
0.019679972
0.019658113
0.019652979
0.01965212
0.019653523
0.01966223
0.01968785
0.017005552
0.016712258
0.01670203
0.016698591
0.01670541
0.016998361
0.017005862
0.014892401
0.014670034
0.01466546
0.014662931
0.014666652
0.014890853
0.014891521
0.013237429
0.013058569
0.013055388
0.013052953
0.013056066
0.013236443
0.013236796
0.011911511
0.011764612
0.01176131
0.011758519
0.011762114
0.011910271
0.011911131
0.010833621
0.010712472
0.010708816
0.010705447
0.010709841
0.010831857
0.010833404
0.0099528863
0.0098561811
0.0098536567
0.0098496676
0.0098542234
0.009951021
0.0099526827
0.0092394125
0.0091723288
0.0091763032
0.0091720723
0.0091740404
0.0092396916
0.0092389072
0.0086753427
0.0086510039
0.0086736774
0.0086714544
0.0086646882
0.008684058
0.0086738748
0.0082391233
0.0082709106
0.0083101019
0.0082926757
0.0083126106
0.0082663493
0.0082356905
0.0078869717
0.007946661
0.0083052271
0.00856463
0.0080597823
0.0079403248
0.0078809292
0.0075607753
0.0078328475
0.010515696
0.012261556
0.0087414785
0.0076361643
0.0075531461
0.0072322342
0.0085148265
0.017879886
0.023098769
0.0120313
0.0073412704
0.0072247036
0.0069149054
0.010813498
0.029684599
0.037975318
0.018990996
0.0072065234
0.0069062099
0.0066243845
0.015293616
0.043247573
0.053522948
0.028767861
0.0074223166
0.0066124874
0.0063813438
0.021874826
0.056219872
0.06787518
0.039649534
0.008370936
0.0063491143
0.0062439425
0.029754937
0.067567089
0.079241183
0.050079682
0.010557887
0.0061179656
0.0062639678
0.037921317
0.076556526
0.087047586
0.059280835
0.014481439
0.0059816724
0.0065774813
0.045545546
0.08259333
0.091729441
0.066731939
0.019861282
0.0059940672
0.0073900195
0.052258034
0.086044487
0.093941291
0.071927541
0.025883125
0.0062994135
0.0089294009
0.057511256
0.087583093
0.094365448
0.075216873
0.031746635
0.007127109
0.011320682
0.061768586
0.088183589
0.093738762
0.077624199
0.037056833
0.0087414914
0.019673068
0.019651946
0.019650735
0.019650689
0.019650698
0.019650696
0.01965084
0.01965345
0.019680893
0.01700065
0.016695885
0.016686828
0.016683006
0.016682343
0.016684419
0.0166911
0.016709797
0.017003034
0.014889817
0.014662331
0.014656448
0.014651818
0.014650779
0.014653771
0.014660143
0.01466939
0.014889877
0.013235193
0.013053286
0.013048465
0.013044134
0.013043027
0.013046066
0.01305154
0.013058247
0.013234855
0.011909642
0.011759371
0.011752781
0.011747108
0.01174566
0.011749617
0.011756572
0.011764511
0.01190909
0.010832465
0.010706769
0.010698444
0.010691388
0.010689664
0.010694459
0.01070296
0.010713058
0.010831431
0.0099533417
0.0098516989
0.0098471487
0.0098429414
0.0098429963
0.0098447887
0.0098494946
0.0098586716
0.0099508771
0.0092432418
0.0091754775
0.0091963069
0.009214365
0.0092339344
0.0092043523
0.0091840422
0.0091790212
0.0092373062
0.0086850874
0.0086790332
0.0087655103
0.0088948078
0.0090053078
0.0087844022
0.0087264744
0.0086647707
0.0086724369
0.008257112
0.0083481804
0.009560658
0.023858933
0.033164104
0.013556764
0.0085158361
0.0082964632
0.0082342965
0.0079135494
0.0084008313
0.031431679
0.11909145
0.15006662
0.072755525
0.012098272
0.0079952321
0.0078794854
0.007592599
0.01131618
0.090903171
0.22290716
0.25617736
0.16467454
0.034643813
0.0078926815
0.007551567
0.0072651841
0.021871585
0.14599224
0.2697019
0.29787901
0.21854092
0.071144526
0.0086044978
0.007222436
0.0069567849
0.038855093
0.17670801
0.2824995
0.30586272
0.23948211
0.10429494
0.011299423
0.0069027774
0.0067011115
0.05833841
0.189724
0.27812175
0.29713955
0.24262233
0.12603182
0.017073685
0.0066092572
0.00659366
0.075586702
0.19211824
0.26470927
0.27998206
0.23585128
0.13780432
0.025793722
0.0063509949
0.0067631041
0.087968345
0.18812348
0.24733053
0.25954945
0.22396244
0.14263538
0.035962835
0.0061390903
0.0074982996
0.095686873
0.1806204
0.22899673
0.23883317
0.21000941
0.14274587
0.045881868
0.0060469819
0.0091699912
0.099751001
0.17152071
0.21132206
0.21932921
0.19576262
0.13989997
0.054516492
0.006160813
0.012187761
0.10123616
0.16205055
0.19510082
0.2016887
0.18222342
0.13546457
0.061415013
0.0067039137
0.016398301
0.10121205
0.15308754
0.18064736
0.1860784
0.16995546
0.13057994
0.066317101
0.0079736476
0.021200726
0.10094286
0.14514087
0.16810058
0.17258028
0.15922416
0.12615107
0.07020034
0.010172193
0.019679961
0.019651944
0.01965066
0.019650627
0.019650609
0.019650606
0.019650616
0.019650644
0.019650723
0.019654032
0.019676098
0.0170055
0.01669586
0.016683641
0.016678327
0.016676174
0.016675786
0.016676983
0.0166804
0.016688729
0.016711996
0.017008135
0.014892333
0.014662337
0.014652921
0.014644585
0.014640005
0.014639071
0.014641833
0.014648233
0.014658118
0.014669154
0.014893803
0.013237359
0.013053299
0.013045398
0.013035602
0.013028663
0.013027141
0.013031542
0.013040354
0.013049915
0.013057623
0.013238023
0.011911443
0.011759382
0.011748895
0.011736029
0.011726528
0.011724317
0.011730514
0.011742315
0.011754743
0.011763947
0.011911517
0.010833551
0.010706773
0.010693714
0.010678932
0.010669265
0.010666111
0.010673097
0.010685952
0.010701001
0.010712491
0.010832913
0.0099528007
0.0098516945
0.0098447163
0.0098437825
0.0098681528
0.0098583899
0.0098512464
0.0098422924
0.0098487389
0.0098574338
0.0099507843
0.0092393004
0.0091754537
0.0092085452
0.0092207242
0.00961927
0.0099268296
0.0093477864
0.009239805
0.009188666
0.0091754042
0.0092343927
0.008675206
0.008678978
0.0088164221
0.014168531
0.070121692
0.096665368
0.035813175
0.0094297958
0.0087459182
0.008655725
0.0086649492
0.0082390031
0.0083470871
0.013712133
0.16726756
0.42556861
0.4916969
0.30843904
0.055434626
0.0087036061
0.0082776104
0.0082210417
0.0078869791
0.0084039106
0.078679823
0.3991177
0.66178279
0.72192459
0.55134145
0.22870529
0.016305994
0.0079783756
0.0078617848
0.007560999
0.011344239
0.18084172
0.48180411
0.68433951
0.72817827
0.60071552
0.33848148
0.05247093
0.0077434628
0.0075338135
0.0072326332
0.022000934
0.23582295
0.48388545
0.64361645
0.67873755
0.57800167
0.36889864
0.10202885
0.0079964693
0.0072091618
0.0069154121
0.039102667
0.25533475
0.45756008
0.58140545
0.60766866
0.53120528
0.36525636
0.13708191
0.0094484329
0.0068949475
0.0066247345
0.058664756
0.25628822
0.41802397
0.51099881
0.52996752
0.47396618
0.34560844
0.15589472
0.012961971
0.0066042316
0.0063826355
0.075897588
0.24727553
0.37511427
0.44474281
0.45853896
0.41740551
0.31886298
0.16376885
0.018907636
0.0063397633
0.0062471361
0.088231221
0.23333399
0.33454182
0.38754307
0.39783549
0.36694437
0.29059924
0.1645986
0.026667514
0.0061119994
0.0062715234
0.095905074
0.21762763
0.29857938
0.33985212
0.347764
0.32391741
0.26376589
0.16111297
0.035126278
0.0059383588
0.0065938917
0.099932828
0.20199182
0.26765771
0.30054446
0.30679677
0.28790099
0.23960023
0.15528171
0.043222671
0.0058822062
0.0074220208
0.10138249
0.18742701
0.24145734
0.2681466
0.27319011
0.25791641
0.21848851
0.1484504
0.050335895
0.006052838
0.0089833999
0.10133128
0.17442254
0.21928292
0.2412664
0.2454107
0.23284993
0.20028168
0.14164406
0.0560811
0.006642145
0.011397901
0.10102699
0.16313447
0.20080171
0.21934329
0.22285052
0.21223119
0.18483712
0.13554845
0.06074345
0.0079630976
0.019658113
0.019650734
0.019650627
0.019650591
0.019650571
0.019650566
0.019650577
0.019650604
0.019650652
0.019650986
0.019669572
0.016712255
0.016686823
0.016678325
0.016674616
0.01667287
0.016672531
0.016673551
0.016676135
0.016681606
0.016693106
0.017002071
0.014670029
0.014656443
0.014644581
0.014636398
0.014631665
0.01463068
0.014633575
0.014640039
0.014650068
0.014659605
0.014891868
0.01305856
0.013048459
0.013035599
0.013022734
0.013014236
0.013012399
0.013017733
0.013028768
0.013042382
0.013050341
0.013237392
0.011764592
0.011752768
0.011736024
0.01171808
0.011705561
0.011703055
0.011710637
0.011726743
0.011744903
0.011756067
0.011911658
0.010712434
0.010698418
0.010678919
0.010660118
0.010648593
0.01065098
0.010650755
0.010669714
0.010688889
0.010703153
0.01083447
0.009856114
0.009847103
0.0098437649
0.0098621168
0.0098131436
0.0098362079
0.0097774906
0.0098705391
0.0098428794
0.009848345
0.009956319
0.0091722234
0.0091962433
0.0092208412
0.011716725
0.038165687
0.05334816
0.020639701
0.0095521062
0.0092376598
0.0091742837
0.0092498039
0.0086509007
0.0087655116
0.01418807
0.20249715
0.54065523
0.62878184
0.38644581
0.062770294
0.0090241793
0.0086837498
0.008700327
0.0082709647
0.0095702372
0.16775221
0.68763372
1.1304231
1.2350797
0.93775972
0.4157182
0.03421512
0.0083345103
0.0082873113
0.0079468466
0.031700963
0.39988582
0.89838107
1.1801529
1.3156612
1.1177713
0.65489479
0.16398632
0.0089862705
0.0079569277
0.0078381316
0.091693889
0.48244079
0.86097882
1.07744
1.1816643
1.0173615
0.68011452
0.27541229
0.01571785
0.0076413182
0.0085420769
0.14693535
0.48434886
0.78270499
1.0060683
1.0612126
0.90788425
0.64097199
0.31620029
0.032721682
0.007323386
0.010892303
0.17750436
0.45787729
0.68400917
0.83030748
0.86264622
0.769272
0.57983445
0.3218482
0.053706544
0.007141401
0.015449535
0.19037734
0.41824162
0.5839216
0.6783643
0.6976467
0.64047193
0.51011895
0.31055064
0.074232751
0.0072222143
0.022103584
0.19263458
0.3752671
0.49708218
0.56053962
0.57281805
0.53575483
0.44422855
0.29097286
0.090251193
0.0077914454
0.030031895
0.18852036
0.33465087
0.42621776
0.47118632
0.47959618
0.453925
0.38720932
0.26844836
0.1007676
0.0091152968
0.038216464
0.18092053
0.29865755
0.36939743
0.40291031
0.40905334
0.39017994
0.33961313
0.24603694
0.10668653
0.011374121
0.045834753
0.1717447
0.2677131
0.32382021
0.3498332
0.35454927
0.34001094
0.3003714
0.22522594
0.10918192
0.014605066
0.052528571
0.16221658
0.24149704
0.28693279
0.30777108
0.31153484
0.29992188
0.26803377
0.20665096
0.10928786
0.018728616
0.057743415
0.15320944
0.21930998
0.2567719
0.27393293
0.27703658
0.26746792
0.24121245
0.19043603
0.10806603
0.02329329
0.061964583
0.14522774
0.20081911
0.23257784
0.24734623
0.25004427
0.24175751
0.21933676
0.17654941
0.10679819
0.027790876
0.019677314
0.01965298
0.019650689
0.019650609
0.019650571
0.019650549
0.019650542
0.019650555
0.019650583
0.019650632
0.019650779
0.019657058
0.0170123
0.016702033
0.016683006
0.016676171
0.016672869
0.016671175
0.016670834
0.016671846
0.016674261
0.01667886
0.01668999
0.016995874
0.014895503
0.014665465
0.014651818
0.014640001
0.014631664
0.014626663
0.014625607
0.014628692
0.014635417
0.014645378
0.014659042
0.014890558
0.013239092
0.013055393
0.013044133
0.01302866
0.013014236
0.013004758
0.013002695
0.013008645
0.013020987
0.013036567
0.013050537
0.013236106
0.01191193
0.01176131
0.011747103
0.011726523
0.011705561
0.011693045
0.011690197
0.011697831
0.011715476
0.011737185
0.011755094
0.011909855
0.010832642
0.010708806
0.010691375
0.010669253
0.010648587
0.010675057
0.010676186
0.010654033
0.010657356
0.010680033
0.010700825
0.010832135
0.0099499057
0.0098536319
0.0098429158
0.0098681173
0.0098131032
0.010447966
0.01102067
0.0099796387
0.0098555329
0.0098423757
0.0098475095
0.0099542317
0.0092334162
0.0091762608
0.0092143565
0.0096198465
0.038164654
0.18084889
0.23771187
0.099607737
0.014000156
0.0091899023
0.0091878166
0.0092505928
0.0086654477
0.0086736328
0.0088953767
0.070253035
0.54078067
1.0326293
1.1487785
0.81878528
0.26450436
0.012892207
0.0087381705
0.0087100642
0.0082257456
0.0083095973
0.023999742
0.4264106
1.1309156
1.703815
1.8274289
1.4586704
0.77524045
0.14493885
0.0088836075
0.008313493
0.0078723743
0.0083102299
0.11982619
0.66281336
1.18066
1.7574525
1.9172963
1.637681
0.97155155
0.36637531
0.019268028
0.0080023371
0.007548276
0.010555912
0.22382841
0.68502354
1.0777417
1.4974654
1.7165555
1.4626723
0.91571048
0.45312269
0.056436718
0.0077688484
0.0072245771
0.018024707
0.27042544
0.64393898
1.0061123
1.3289568
1.4012959
1.1847866
0.82475382
0.46007698
0.099460553
0.0079162694
0.0069107764
0.029924692
0.28302032
0.58155412
0.83029124
1.0047749
1.0433793
0.93094231
0.7133031
0.4380702
0.13058699
0.0089972796
0.0066208971
0.043525076
0.27848547
0.51107604
0.67834329
0.7756028
0.79556844
0.73640786
0.60366737
0.40262263
0.14847445
0.011576305
0.0063626336
0.056490637
0.26496349
0.44478909
0.56052457
0.61960783
0.63091459
0.59666924
0.5107429
0.36314739
0.15662168
0.015831889
0.0061570804
0.067814346
0.2475068
0.38757213
0.47117579
0.51045689
0.51760537
0.49558153
0.43608505
0.32522885
0.15829863
0.021666093
0.0060371747
0.076759956
0.22911837
0.33986988
0.40290217
0.43110733
0.4360871
0.42058416
0.37683712
0.29124097
0.15577729
0.028613985
0.0061133821
0.082753841
0.21140529
0.30055411
0.34982623
0.37130442
0.37504392
0.36334832
0.32963117
0.26176335
0.15077877
0.035646418
0.0065221449
0.086170238
0.19515678
0.26815038
0.30776469
0.32486563
0.3278321
0.31854537
0.29159421
0.23660483
0.14455468
0.04192486
0.0075290194
0.087681502
0.1806834
0.24126554
0.27392676
0.28805945
0.29052089
0.28282895
0.26059985
0.21519127
0.13803566
0.047044057
0.0094955889
0.088260943
0.16812161
0.21933851
0.24733979
0.25973976
0.26193596
0.25511632
0.23584528
0.19726225
0.13196714
0.051001599
0.019687267
0.019652121
0.019650698
0.019650606
0.019650566
0.019650542
0.019650536
0.019650549
0.019650578
0.019650627
0.019650776
0.019654764
0.017008066
0.016698597
0.016682344
0.016675785
0.01667253
0.016670835
0.016670491
0.016671506
0.016673907
0.016678384
0.0166888
0.016715306
0.014891124
0.014662942
0.014650785
0.014639072
0.014630682
0.014625611
0.014624536
0.014627667
0.014634463
0.014644416
0.014657863
0.014669687
0.013235827
0.013052969
0.013043037
0.013027147
0.013012407
0.013002704
0.013000583
0.013006703
0.013019291
0.013035227
0.013049564
0.013057739
0.011909736
0.011758539
0.011745676
0.011724329
0.011703069
0.011690211
0.011687123
0.011695851
0.011712858
0.011735391
0.011753961
0.011763686
0.010831634
0.010705471
0.010689686
0.010666114
0.010650967
0.010676223
0.01067271
0.010677029
0.01065175
0.010678063
0.010699621
0.010711275
0.0099507591
0.0098496988
0.0098430249
0.0098582433
0.0098353355
0.011016927
0.011945507
0.010152242
0.0097620694
0.0098445802
0.0098473375
0.0098538637
0.0092378553
0.0091721106
0.0092339489
0.0099246374
0.053213609
0.23738516
0.30291273
0.13559742
0.017287454
0.0092348507
0.0091927361
0.0091669334
0.008676662
0.0086715069
0.0090043705
0.096482997
0.62830165
1.1482203
1.2687065
0.92499399
0.32863757
0.01638532
0.0087522052
0.0086391154
0.0082473963
0.0082926409
0.033115149
0.49174903
1.2355097
1.8272884
1.941781
1.5810964
0.86197205
0.18551404
0.0093347687
0.0082498578
0.0079044347
0.0085627231
0.14991586
0.72266242
1.3166799
1.9185294
1.9699591
1.825793
1.0492648
0.41594492
0.025852147
0.0079405604
0.0075830334
0.012239944
0.25580856
0.72769836
1.1818559
1.7174455
1.7391803
1.7018495
1.0509558
0.49238008
0.072697355
0.007687321
0.0072538647
0.02301361
0.29752334
0.67846607
1.0612866
1.4013577
1.4632577
1.2563299
0.86760018
0.49134499
0.12054204
0.0078911426
0.0069349881
0.037832118
0.30555384
0.60748952
0.86263843
1.0433971
1.0821808
0.96773073
0.74225695
0.4628689
0.15086499
0.0090357064
0.006655364
0.053346519
0.29688068
0.52982246
0.69760274
0.79555608
0.81560869
0.75624163
0.62278985
0.42174832
0.16641445
0.011478562
0.006419078
0.067692694
0.27976704
0.45841769
0.5727693
0.63089776
0.64200574
0.60842547
0.52378481
0.37779367
0.17190941
0.015385123
0.0063071574
0.079068571
0.25937151
0.39773485
0.47955251
0.51759016
0.52447412
0.50326902
0.44541105
0.33654861
0.17105489
0.020606544
0.0063741364
0.086887255
0.23868568
0.34768068
0.40901612
0.43607412
0.44081092
0.42604789
0.38382273
0.30014056
0.16635242
0.026636571
0.0067373873
0.091581895
0.21920678
0.3067276
0.35451779
0.37503284
0.37856946
0.36748766
0.33506589
0.26889454
0.15956558
0.032885413
0.0075699437
0.093808157
0.20158653
0.27313229
0.31150808
0.32782251
0.33062415
0.32183479
0.29594877
0.24240414
0.15190308
0.03893961
0.0090777857
0.094245932
0.18599237
0.24536181
0.2770135
0.29051241
0.29284143
0.28554845
0.26418032
0.21995511
0.14416541
0.044261407
0.011399409
0.09363109
0.17250683
0.22280816
0.25002348
0.26192791
0.26402053
0.25751264
0.23891341
0.20124218
0.13695593
0.048023593
0.019653523
0.019650696
0.019650616
0.019650577
0.019650555
0.019650549
0.019650561
0.019650589
0.019650639
0.019650799
0.019658583
0.016705417
0.016684422
0.016676984
0.016673553
0.016671849
0.016671508
0.016672514
0.016674971
0.016679852
0.016692186
0.016997427
0.014666667
0.014653782
0.01464184
0.014633584
0.014628701
0.014627672
0.014630666
0.01463726
0.014647223
0.014660695
0.014890588
0.013056092
0.013046086
0.013031561
0.013017754
0.013008666
0.013006715
0.013012383
0.013024189
0.013039007
0.013051783
0.013235774
0.011762149
0.011749652
0.011730548
0.011710674
0.011697864
0.011695871
0.011702882
0.011720185
0.01174045
0.011756687
0.011909286
0.010709891
0.010694513
0.010673148
0.01065078
0.010654019
0.010677016
0.010647819
0.010662449
0.010683708
0.010702873
0.010831036
0.0098542988
0.0098448641
0.009851264
0.0097771732
0.0099782766
0.010150925
0.0098414809
0.0098662022
0.0098421054
0.0098488004
0.0099516233
0.009174143
0.009204431
0.0093465207
0.020563233
0.099272674
0.13531191
0.052404012
0.010837239
0.0092456771
0.0091819856
0.009244388
0.008664778
0.0087840453
0.035648825
0.3856522
0.81773953
0.92414305
0.62748943
0.16166105
0.010148838
0.0087219793
0.0086970573
0.0083125064
0.013518832
0.30786836
0.93779031
1.4577543
1.5802399
1.2349451
0.62055605
0.085040744
0.0085010592
0.0082932682
0.0080580196
0.072239347
0.55048426
1.1183296
1.637851
1.8250806
1.5256403
0.83887566
0.27896942
0.012236575
0.0079736497
0.0087208887
0.16363639
0.59999381
1.0171491
1.462768
1.7010524
1.4139361
0.81632056
0.38045142
0.033993043
0.0076813123
0.011938338
0.21751268
0.57738715
0.90775972
1.1846218
1.2559413
1.0616432
0.7479559
0.40199041
0.066483296
0.0075724539
0.018783677
0.2385829
0.53074281
0.76912755
0.93079796
0.96761653
0.86324198
0.65896788
0.39150086
0.096351574
0.0079347585
0.02845428
0.24187603
0.47360913
0.64034486
0.736315
0.75618256
0.69798594
0.5665261
0.36612812
0.11725163
0.0092682542
0.039272119
0.23524691
0.4171238
0.53564847
0.5966075
0.60838708
0.57302149
0.48481098
0.3348195
0.12941197
0.012105877
0.0496834
0.22348062
0.36672051
0.45383778
0.495537
0.5032413
0.47972857
0.4172563
0.30309884
0.13506859
0.016703368
0.058891395
0.20962807
0.32373846
0.39010821
0.42054967
0.42602632
0.40914694
0.36260004
0.27370533
0.13617972
0.022798233
0.066377805
0.19545995
0.28775703
0.3399514
0.36332019
0.3674702
0.3546192
0.31848799
0.24763283
0.13428528
0.029511037
0.071618092
0.18198144
0.25779972
0.29987186
0.31852155
0.32182023
0.31159063
0.28263865
0.2250502
0.13063975
0.035908173
0.074949256
0.16976042
0.23275445
0.26742529
0.28280814
0.28553599
0.27708449
0.25322877
0.20565932
0.12629555
0.041385596
0.077390024
0.15906579
0.21215166
0.24171977
0.25509688
0.25750134
0.25008757
0.22954428
0.18928057
0.12222292
0.045873971
0.019662229
0.01965084
0.019650644
0.019650604
0.019650583
0.019650578
0.019650589
0.019650618
0.01965067
0.019651302
0.019676765
0.016998354
0.016691105
0.016680404
0.01667614
0.016674268
0.016673913
0.016674974
0.016677804
0.016684301
0.016702475
0.017002579
0.014890838
0.014660157
0.014648246
0.014640053
0.014635432
0.014634475
0.014637267
0.014643614
0.014653764
0.014665847
0.014890661
0.013236424
0.013051565
0.013040381
0.0130288
0.013021019
0.013019317
0.013024204
0.013034263
0.013046201
0.013055788
0.013236155
0.011910251
0.011756613
0.011742362
0.011726796
0.01171553
0.011712903
0.011720213
0.011734278
0.011749904
0.011761972
0.011910637
0.010831842
0.010703025
0.010686021
0.010669781
0.010657425
0.010651806
0.010662487
0.010677146
0.010694913
0.01070995
0.010833294
0.0099510313
0.0098495875
0.0098423568
0.0098705869
0.0098557307
0.0097622361
0.0098662433
0.0098469629
0.0098452513
0.0098553444
0.009953822
0.009239753
0.0091841368
0.0092397735
0.009549211
0.013968245
0.017235602
0.010828701
0.0092526451
0.0092048258
0.009177934
0.0092434969
0.0086841597
0.0087264653
0.0094255531
0.062520982
0.26381519
0.32760812
0.16110259
0.017312809
0.0087773546
0.008674391
0.0086861483
0.0082663755
0.0085144272
0.055214426
0.41529785
0.77458984
0.86061742
0.61939346
0.20786294
0.012188417
0.008331536
0.0082609273
0.0079400673
0.012054523
0.22814471
0.65476268
0.97105535
1.0481417
0.83784675
0.44732565
0.063577735
0.0081236497
0.0079208922
0.0076352571
0.034331864
0.33790647
0.6799819
0.91531973
1.0502193
0.81567228
0.52058864
0.15710218
0.0090801771
0.0076005707
0.0073388337
0.070476232
0.36837135
0.64078548
0.82444988
0.86715696
0.74756081
0.51493176
0.21397757
0.013594119
0.0072730532
0.0071994146
0.10355171
0.36478722
0.57964095
0.7130573
0.74198398
0.6587224
0.48223197
0.23662261
0.022963661
0.0069669983
0.0074021519
0.12532979
0.34521323
0.50995451
0.60349683
0.62260775
0.56635746
0.4370479
0.24066992
0.035780794
0.0067165686
0.0083216015
0.13717681
0.31853853
0.4440962
0.51062607
0.52365462
0.48468538
0.3896509
0.23444588
0.049295666
0.006620684
0.010457386
0.14210178
0.29033553
0.38710226
0.43600044
0.44531347
0.41716015
0.34575221
0.22291089
0.061336254
0.006800523
0.014311494
0.14230554
0.26355194
0.3395246
0.37677185
0.38374689
0.36252525
0.30737516
0.20916588
0.07120984
0.007531199
0.019634529
0.13953763
0.23942563
0.30029642
0.32957806
0.33500534
0.31842922
0.27469912
0.19506066
0.078220798
0.0091583488
0.025621117
0.13516653
0.21834462
0.26796889
0.2915492
0.2958994
0.28259212
0.24719862
0.18166734
0.082473488
0.011903612
0.031477012
0.13033497
0.20016183
0.24115523
0.26056041
0.26413929
0.25319151
0.22403014
0.16959094
0.084789582
0.015696173
0.036795467
0.12595039
0.18473571
0.21928462
0.23580884
0.23887803
0.22951394
0.20480834
0.15906017
0.08658131
0.019979893
0.019687886
0.01965345
0.019650723
0.019650653
0.019650632
0.019650627
0.019650639
0.01965067
0.019650853
0.019656688
0.017005884
0.016709803
0.016688737
0.016681614
0.016678867
0.016678392
0.016679859
0.0166843
0.016693252
0.01699656
0.014891567
0.014669405
0.014658136
0.014650087
0.014645396
0.014644434
0.014647239
0.014653765
0.014661052
0.014891949
0.013236855
0.013058274
0.013049946
0.013042418
0.013036603
0.013035263
0.013039038
0.013046218
0.013052196
0.013237388
0.011911204
0.011764554
0.011754794
0.011744961
0.011737247
0.011735451
0.011740503
0.011749933
0.011758116
0.011910329
0.010833495
0.01071312
0.010701071
0.010688966
0.010680115
0.010678148
0.010683785
0.010694954
0.010705408
0.010830653
0.009952796
0.0098587529
0.0098488156
0.009842933
0.0098424218
0.0098446374
0.0098421841
0.0098453081
0.0098507859
0.0099482799
0.009239045
0.0091791081
0.0091886937
0.0092375209
0.0091894318
0.0092343462
0.0092456901
0.0092048576
0.0091766168
0.0092355804
0.0086740099
0.0086648059
0.0087457952
0.0090231747
0.012865697
0.016267866
0.010133415
0.0087771834
0.0086855406
0.008680355
0.0082357357
0.0082963311
0.0087023004
0.034169246
0.14471163
0.18444003
0.084335573
0.012163455
0.0083460236
0.0082662339
0.0078807508
0.0079947034
0.016279681
0.16408331
0.36620001
0.41469223
0.27742972
0.063204562
0.0086476087
0.0079474305
0.0075526735
0.0078897086
0.052414695
0.27562401
0.4530276
0.49142953
0.3790983
0.15634892
0.012842186
0.0076596599
0.007224042
0.0085909597
0.10198079
0.31637222
0.45997942
0.49064393
0.40094435
0.21327323
0.026727767
0.0074205217
0.0069054937
0.011259455
0.13700684
0.32197085
0.43795751
0.46234766
0.3907036
0.23601833
0.047591941
0.0074112695
0.0066117801
0.016981847
0.15580126
0.31062201
0.40251376
0.42135641
0.36552564
0.24017511
0.069578687
0.0079498715
0.0063482916
0.025644982
0.16366994
0.2910063
0.36305303
0.3774948
0.33436138
0.23405263
0.086810154
0.0097552183
0.0061165939
0.035776537
0.1644986
0.26845539
0.32514743
0.33631714
0.3027485
0.22260542
0.098220742
0.013660356
0.0059779827
0.045675888
0.16101404
0.24602558
0.29116925
0.29995819
0.27343558
0.20893165
0.10476286
0.020073684
0.0059855419
0.054303358
0.15518613
0.22520153
0.26169883
0.26874884
0.24742358
0.19488011
0.10767785
0.027862325
0.0062806355
0.061210388
0.14835886
0.20661751
0.2365458
0.24228618
0.22488676
0.18152811
0.10809936
0.035587238
0.0070893005
0.066127151
0.14155739
0.19039663
0.21513651
0.21985818
0.20553034
0.16948209
0.10718305
0.042287786
0.0086750165
0.070028229
0.13546612
0.17650569
0.19721013
0.2011608
0.18917754
0.15897369
0.10610344
0.047817277
0.019680892
0.019654033
0.019650986
0.01965078
0.019650776
0.019650799
0.019651302
0.01965668
0.019677531
0.017003012
0.016712005
0.016693119
0.016689999
0.016688809
0.016692196
0.016702476
0.016996483
0.017003777
0.014889847
0.014669173
0.014659626
0.01465906
0.014657883
0.014660716
0.014665859
0.014891922
0.014890078
0.01323483
0.013057656
0.013050378
0.013050571
0.013049601
0.013051823
0.013055818
0.013237376
0.013234873
0.011909079
0.011763997
0.011756126
0.011755152
0.011754023
0.011756753
0.011762023
0.011910331
0.011908842
0.010831437
0.010712555
0.010703231
0.010700906
0.01069971
0.010702969
0.010710027
0.010830672
0.010830643
0.0099508966
0.009857502
0.0098484228
0.0098475915
0.0098474459
0.0098489248
0.0098554549
0.0099483181
0.0099488673
0.0092373298
0.0091754478
0.0091743167
0.0091878238
0.0091928035
0.0091820904
0.0091780655
0.0092356399
0.0092326616
0.0086724383
0.0086556904
0.0086836194
0.0087380599
0.0087520139
0.0087219346
0.008674446
0.0086804333
0.0086629078
0.0082342261
0.0082774952
0.0083341876
0.0088811852
0.0093195561
0.0084980498
0.0083312681
0.0082662895
0.0082178217
0.0078793193
0.0079782756
0.0089879449
0.01926066
0.025629178
0.01215854
0.0081206215
0.007947343
0.0078568778
0.0075513328
0.0077439167
0.01575966
0.056477937
0.072146309
0.033528784
0.0090522305
0.0076591157
0.0075278861
0.0072221848
0.0079995649
0.032882494
0.099562777
0.11982855
0.065603363
0.013472362
0.0074184985
0.0072030737
0.0069025217
0.0094585461
0.053973975
0.13064566
0.1502106
0.095381717
0.022692472
0.00740564
0.0068889232
0.0066089732
0.01298831
0.074480969
0.1484966
0.16585955
0.11636234
0.035374233
0.0079357201
0.0065976563
0.0063506854
0.018950879
0.090443158
0.15661698
0.17144668
0.128651
0.04882728
0.0097206863
0.0063352223
0.0061384157
0.026716561
0.10091139
0.15827134
0.17067324
0.13443601
0.06087696
0.013590551
0.0061158737
0.0060455407
0.035167228
0.10679392
0.15573603
0.1660386
0.13566643
0.070783793
0.019960287
0.0059612897
0.0061573351
0.043249767
0.10925515
0.1507296
0.1593068
0.13386981
0.077852049
0.027722643
0.0059614822
0.0066954568
0.050347147
0.10933332
0.14450135
0.15168882
0.13030314
0.0821578
0.035440728
0.0062098114
0.0079560461
0.05607661
0.10808996
0.13798056
0.14398671
0.1260223
0.084523495
0.042149472
0.006896288
0.010141696
0.060730768
0.10680062
0.13191157
0.13680498
0.1220009
0.086352438
0.047689873
0.008262722
0.019676296
0.019669572
0.019657058
0.019654764
0.019658583
0.019676765
0.017008322
0.017002095
0.016995881
0.016715312
0.016997436
0.017002636
0.014893993
0.014891919
0.014890572
0.014669702
0.014890609
0.014890771
0.013238213
0.013237473
0.013236134
0.013057769
0.013235813
0.013236307
0.011911705
0.011911768
0.011909904
0.011763736
0.011909352
0.011910826
0.010833098
0.010834605
0.010832205
0.010711351
0.01083113
0.010833513
0.0099509577
0.0099564658
0.009954313
0.009853966
0.0099517463
0.0099540704
0.0092345232
0.0092499224
0.0092506481
0.0091670375
0.0092445313
0.0092437766
0.0086649871
0.0087003642
0.0087100332
0.0086391416
0.008697156
0.0086864217
0.0082209541
0.0082872508
0.0083133603
0.0082497221
0.0082931437
0.0082610691
0.0078616249
0.0079569251
0.0080022412
0.0079410442
0.0079730072
0.007920694
0.0075337023
0.0076415611
0.0077688232
0.0076846273
0.0076791207
0.0075999316
0.0072091681
0.0073240992
0.0079175487
0.0078796629
0.0075640104
0.0072720492
0.0068950306
0.0071435685
0.0090034429
0.0090029848
0.007906941
0.0069655657
0.0066043268
0.0072282918
0.011589175
0.0114137
0.0091994513
0.0067129511
0.0063398621
0.0078054256
0.015849837
0.015279987
0.011974107
0.0066120545
0.006112219
0.0091408195
0.021686799
0.020461001
0.016494024
0.006779399
0.005938881
0.011412656
0.028630751
0.026456084
0.022525549
0.0074843086
0.0058841747
0.01465594
0.035655523
0.032678445
0.029204636
0.0090716624
0.006057283
0.018785344
0.041926331
0.038710405
0.035597233
0.011767968
0.0066513476
0.023347647
0.047038446
0.044034796
0.041087679
0.015521072
0.0079794104
0.027838217
0.050986782
0.047810356
0.045599964
0.019784565
0.019676296
0.019676765
0.017632645
0.017624098
0.019669572
0.019658583
0.017621308
0.017611791
0.019687546
0.017639062
0.017634994
0.019657058
0.019654765
0.017609401
0.017940154
0.019677401
0.017635072
0.017639051
0.019654764
0.019657059
0.017940143
0.017609396
0.019658583
0.019669572
0.017611792
0.017621305
0.019676765
0.019676296
0.017624097
0.017632644
0.0079115631
0.019588439
0.0096096727
0.022354362
0.02759045
0.045381452
0.030047075
0.048861452
0.01141279
0.011692297
0.013570314
0.050729205
0.047657633
0.053406327
0.060797258
0.0095176076
0.013588953
0.01178953