/*--------------------------------*- C++ -*----------------------------------*\
  =========                 |
  \\      /  F ield         | OpenFOAM: The Open Source CFD Toolbox
   \\    /   O peration     | Website:  https://openfoam.org
    \\  /    A nd           | Version:  8
     \\/     M anipulation  |
\*---------------------------------------------------------------------------*/
FoamFile
{
    version     2.0;
    format      ascii;
    class       volScalarField;
    location    "226";
    object      nut;
}
// * * * * * * * * * * * * * * * * * * * * * * * * * * * * * * * * * * * * * //

dimensions      [0 2 -1 0 0 0 0];

internalField   nonuniform List<scalar> 
72028
(
0.0019974601
0.0019974125
0.0019737713
0.0019736072
0.0019523833
0.0019522793
0.0019337223
0.0019336675
0.0019173353
0.0019173267
0.0019031252
0.001903191
0.0018914649
0.0018916996
0.0018834046
0.0018840399
0.00188053
0.0018820083
0.001883567
0.0018864495
0.0018898142
0.0018942273
0.0018935107
0.001898463
0.0018917829
0.0018961797
0.0018869705
0.0018911146
0.001882285
0.001890133
0.0018804723
0.0018953835
0.0018888988
0.0019330213
0.0019192671
0.0020222161
0.0020062728
0.0022056323
0.0021921637
0.0025270744
0.0025587992
0.0030474557
0.0031998952
0.0037976472
0.0019973545
0.0019971705
0.0019971273
0.0019971202
0.0019971317
0.0019972054
0.0019974273
0.0019736028
0.0019708421
0.0019707544
0.0019707293
0.0019707875
0.0019735144
0.0019736119
0.0019523137
0.0019499258
0.0019499029
0.0019498942
0.0019499152
0.0019522864
0.0019523132
0.001933703
0.0019315554
0.0019315551
0.0019315481
0.0019315587
0.0019336867
0.0019337056
0.0019173637
0.0019154851
0.0019155018
0.0019154836
0.001915496
0.0019173486
0.0019173664
0.0019032327
0.0019017942
0.0019018867
0.0019018475
0.0019018427
0.0019032294
0.0019032296
0.0018917342
0.0018912399
0.0018916495
0.0018915919
0.0018914551
0.0018918205
0.0018917112
0.0018839804
0.001885617
0.0018870796
0.0018870261
0.0018864143
0.0018844526
0.0018839005
0.0018815668
0.0018875639
0.0018914774
0.001891606
0.001890207
0.0018832529
0.0018813444
0.0018850765
0.0018976142
0.0019029318
0.001899738
0.0019056365
0.0018893891
0.0018845711
0.0018915558
0.0019059661
0.0019844649
0.0020471669
0.0019247695
0.0018996749
0.0018906631
0.0018950416
0.0019577682
0.0025561171
0.0029251244
0.0021707894
0.0019070466
0.0018939012
0.0018927099
0.0022114043
0.0042614547
0.0052807019
0.0030096822
0.0019130898
0.0018915466
0.0018876124
0.0028567823
0.0067676487
0.0080598927
0.0046812557
0.0019562204
0.0018860308
0.0018830943
0.0040292699
0.0092253009
0.010565555
0.0068141891
0.0020920383
0.0018806482
0.0018859072
0.0056226692
0.011313022
0.012906449
0.0088638323
0.0024200432
0.0018775636
0.0019148952
0.0073207553
0.013213038
0.014973703
0.010647443
0.0030493137
0.0018785548
0.0019904622
0.0088808713
0.015011884
0.016753203
0.012303303
0.0040248263
0.0019043692
0.0021481102
0.010324362
0.016603213
0.018300998
0.013909992
0.0052291036
0.0019742469
0.0024459107
0.011766365
0.017987722
0.019576425
0.015358365
0.0065382458
0.0021306886
0.002938329
0.013147351
0.019166455
0.020613367
0.016661852
0.0078880333
0.0024362461
0.0036305593
0.014531861
0.020188194
0.021430883
0.017935312
0.009247894
0.0029643185
0.0019972952
0.0019971189
0.0019971084
0.001997108
0.0019971081
0.0019971081
0.0019971091
0.0019971303
0.001997361
0.0019735344
0.0019707062
0.0019706176
0.0019705829
0.0019705768
0.0019705958
0.0019706576
0.0019708167
0.0019735569
0.0019522674
0.0019498933
0.0019498283
0.0019497837
0.0019497729
0.0019498028
0.0019498649
0.0019499186
0.001952262
0.0019336703
0.0019315603
0.0019315174
0.0019314858
0.0019314761
0.0019315002
0.0019315414
0.0019315597
0.0019336499
0.001917359
0.0019155129
0.0019155166
0.0019155249
0.0019155248
0.001915521
0.0019155149
0.0019155201
0.001917312
0.0019033003
0.0019019159
0.0019021836
0.0019024162
0.001902482
0.0019023108
0.0019020438
0.0019019216
0.0019031804
0.0018919869
0.0018917485
0.0018931326
0.0018942331
0.0018947153
0.0018937588
0.0018923992
0.0018916123
0.001891669
0.0018846503
0.0018874024
0.0018930624
0.001897289
0.0019014171
0.0018950192
0.001889827
0.0018865466
0.0018838633
0.0018830156
0.0018931593
0.0019077525
0.0019483645
0.0019665647
0.0019085991
0.0019012434
0.0018894755
0.0018813016
0.0018876816
0.0019105023
0.0021615965
0.0048116487
0.0063706685
0.0029172604
0.0019384818
0.0019013077
0.0018845002
0.0018954648
0.0020030066
0.0062504442
0.017359473
0.020700623
0.011941464
0.0027594605
0.0019131522
0.0018905447
0.001899838
0.0027152653
0.0142389
0.029002801
0.032599198
0.022627236
0.0069272033
0.0019663045
0.0018937232
0.0018979135
0.0049435997
0.021025626
0.035601103
0.038874319
0.029613968
0.011988534
0.0022239884
0.0018912291
0.001895561
0.0078135784
0.02565149
0.03883102
0.041685129
0.033523743
0.01641628
0.0029471804
0.0018855283
0.0019011527
0.01069317
0.028498788
0.040162237
0.042646352
0.035511704
0.019944883
0.0043575913
0.0018802719
0.0019430739
0.013436426
0.030228549
0.040538913
0.042707562
0.036444911
0.022538373
0.0062590082
0.0018786835
0.002063178
0.01588895
0.031277326
0.040425108
0.042326307
0.036807785
0.024353368
0.0081730407
0.0018853674
0.0023332825
0.017937826
0.031904553
0.040051105
0.041727683
0.036840503
0.025642774
0.0099030762
0.0019239927
0.002822788
0.019525923
0.032249938
0.039547647
0.041042009
0.03667627
0.026554177
0.01155113
0.0020239593
0.0035816447
0.020764648
0.032427681
0.039013086
0.040357279
0.036422301
0.027243231
0.0131793
0.0022377118
0.0045684653
0.021783935
0.032550387
0.038512272
0.039719273
0.03617312
0.027813996
0.014702074
0.0026477518
0.0057137607
0.022848373
0.032731607
0.038106478
0.039184958
0.036002594
0.028420361
0.016191967
0.0032773776
0.0019973542
0.0019971189
0.0019971078
0.0019971077
0.0019971076
0.0019971076
0.0019971076
0.0019971078
0.0019971082
0.001997135
0.0019973845
0.0019736014
0.001970706
0.0019705888
0.0019705408
0.0019705217
0.0019705183
0.0019705288
0.0019705592
0.0019706347
0.0019708396
0.0019736684
0.0019523124
0.0019498932
0.0019497946
0.0019497161
0.0019496765
0.0019496687
0.0019496918
0.0019497495
0.0019498437
0.0019499192
0.0019523334
0.0019337022
0.0019315603
0.0019314955
0.0019314314
0.001931399
0.0019313933
0.0019314104
0.0019314601
0.0019315277
0.0019315536
0.001933695
0.0019173634
0.0019155127
0.0019155243
0.0019155878
0.0019156884
0.0019157106
0.001915639
0.0019155466
0.0019155174
0.0019155013
0.0019173282
0.0019032325
0.0019019152
0.0019023487
0.0019031206
0.0019039825
0.001904034
0.0019035814
0.0019026858
0.0019021192
0.0019018565
0.0019031384
0.0018917328
0.0018917478
0.0018939515
0.0018979515
0.0019052043
0.0019039248
0.0019010733
0.0018956023
0.0018927473
0.0018914025
0.0018914896
0.0018839768
0.0018874009
0.0018961463
0.0018973633
0.0019941237
0.0020515751
0.0019250837
0.0019025572
0.0018909872
0.0018859603
0.0018833849
0.0018815615
0.0018931521
0.0019140492
0.0029319161
0.010925029
0.013921532
0.0065019817
0.0020440266
0.0019044665
0.0018880952
0.0018802799
0.0018850751
0.001910254
0.0029551847
0.021441768
0.045226295
0.051022624
0.034721736
0.0092433739
0.0019884798
0.0018984853
0.0018827374
0.0018915742
0.0020038354
0.012219477
0.044898477
0.069643925
0.075065703
0.05947077
0.028033161
0.0035698228
0.0019120209
0.0018881613
0.0018950934
0.0027208741
0.023877378
0.056275879
0.076452883
0.080625924
0.06833091
0.041147603
0.0092410728
0.0019327428
0.0018912763
0.0018927912
0.0049656454
0.031391164
0.059550057
0.076290764
0.07981389
0.069583554
0.046826169
0.015515557
0.0020843973
0.0018893507
0.0018877196
0.0078448295
0.035295733
0.059568247
0.073669539
0.076593477
0.068050182
0.04869048
0.020420893
0.0025231168
0.0018843524
0.0018831639
0.010734631
0.037134832
0.058135602
0.070014396
0.072436573
0.065314384
0.04880839
0.023816734
0.0034692051
0.0018792862
0.0018862624
0.013477391
0.037903434
0.05614169
0.066240723
0.06827666
0.062265398
0.048100262
0.02602811
0.0049445465
0.001875543
0.0019158199
0.015926324
0.038090732
0.054046262
0.062761612
0.064506662
0.05934053
0.047046338
0.027523191
0.0066654805
0.0018773802
0.0019927482
0.017968851
0.037969192
0.052057793
0.059695997
0.061219379
0.056701323
0.045894684
0.028549292
0.0082992192
0.0018914619
0.0021527675
0.019551723
0.037693674
0.05025921
0.057043552
0.058392962
0.054384996
0.044770159
0.029237739
0.0098086303
0.0019390766
0.0024548027
0.020786458
0.037365858
0.048680565
0.054761077
0.055967429
0.052379439
0.043746135
0.02970131
0.011289337
0.0020553738
0.0029524955
0.021802666
0.037067669
0.04730516
0.052791481
0.053879187
0.050642072
0.042847444
0.030076807
0.012753315
0.0023015953
0.0036491778
0.022862615
0.036861753
0.046178093
0.05119277
0.052189009
0.049224844
0.042117169
0.030499134
0.014220272
0.0027619126
0.0019971705
0.0019971084
0.0019971077
0.0019971074
0.0019971071
0.001997107
0.0019971072
0.0019971075
0.0019971078
0.0019971105
0.0019972663
0.0019708421
0.0019706176
0.0019705407
0.0019705078
0.0019704917
0.0019704885
0.001970498
0.0019705212
0.00197057
0.0019706799
0.0019735563
0.0019499259
0.0019498282
0.0019497159
0.0019496482
0.0019496158
0.0019496098
0.001949628
0.0019496766
0.0019497665
0.0019498678
0.0019523095
0.0019315552
0.0019315169
0.001931431
0.0019313851
0.0019313912
0.0019313981
0.0019313836
0.0019313994
0.0019314728
0.0019315342
0.0019337197
0.0019154842
0.0019155156
0.0019155871
0.0019158223
0.001916146
0.0019162715
0.0019159729
0.0019156898
0.001915532
0.0019154877
0.0019174207
0.0019017919
0.0019021817
0.0019031195
0.0019046914
0.0019064724
0.0019077463
0.0019051247
0.0019040319
0.0019025313
0.0019019085
0.0019034156
0.0018912353
0.0018931297
0.0018979515
0.0019054276
0.0018998675
0.0019059724
0.001888631
0.0019062655
0.0018948938
0.0018918393
0.0018922832
0.0018856097
0.0018930593
0.0018973957
0.002396914
0.0068484269
0.0089401783
0.0040276437
0.0019798964
0.0019023615
0.0018878079
0.0018854558
0.0018875597
0.0019077484
0.0029355999
0.024398323
0.053091907
0.060024282
0.04050179
0.0099027297
0.0019694742
0.001893844
0.001884999
0.0018976327
0.0021633375
0.021489137
0.067593922
0.10255941
0.11032622
0.087831137
0.044255567
0.0064756188
0.0019065966
0.0018917311
0.0019059964
0.0062936861
0.044972933
0.090276431
0.11184519
0.1217682
0.10798062
0.06902156
0.021646049
0.0021339168
0.0019013992
0.0019591536
0.014329365
0.056343745
0.092773297
0.1103676
0.11837542
0.10551682
0.076073105
0.034368393
0.0036282614
0.0019075122
0.0022177458
0.021137044
0.059606712
0.089915469
0.10951797
0.11398723
0.10128228
0.076059908
0.040852827
0.0069087424
0.0019093412
0.0028752619
0.025747655
0.059613745
0.08492171
0.10007557
0.10329645
0.093907229
0.073519855
0.043498426
0.010129353
0.0019406595
0.0040645844
0.02858017
0.058171396
0.079269651
0.091169517
0.093594499
0.086423402
0.06990691
0.044284678
0.013157342
0.002040556
0.0056695744
0.030300609
0.05616945
0.073975433
0.083677256
0.085612954
0.079848614
0.06615389
0.044169092
0.015819265
0.0022723834
0.0073692269
0.031339226
0.054067571
0.069364977
0.077555788
0.07917491
0.074339117
0.062684727
0.043612536
0.018082375
0.0027079268
0.0089268642
0.031954224
0.05207385
0.065448256
0.072555102
0.073954633
0.069769675
0.059624852
0.042869482
0.019910859
0.0033633833
0.010368429
0.032287952
0.050270907
0.062140438
0.06842502
0.069660744
0.065963849
0.05698054
0.042075733
0.021316838
0.0041827215
0.011810467
0.032456563
0.048689024
0.059333479
0.064965579
0.066073541
0.062759532
0.054711206
0.041316826
0.022398406
0.0051484314
0.013188177
0.032573169
0.047310924
0.056941654
0.062051341
0.063058305
0.060048215
0.052758435
0.040642631
0.023264693
0.0062054911
0.014569684
0.032748858
0.046181731
0.055028699
0.059764557
0.060701807
0.057904028
0.051175927
0.040102035
0.02419723
0.0073156612
0.0019974559
0.0019971273
0.001997108
0.0019971076
0.0019971071
0.0019971065
0.0019971063
0.0019971067
0.0019971073
0.0019971077
0.0019971086
0.0019971623
0.0019737666
0.0019707546
0.0019705829
0.0019705215
0.0019704916
0.001970475
0.0019704715
0.0019704817
0.0019705044
0.0019705452
0.0019706472
0.001973488
0.0019523808
0.0019499032
0.0019497836
0.0019496761
0.0019496156
0.0019495892
0.0019495846
0.0019495987
0.0019496405
0.0019497224
0.0019498533
0.0019522825
0.0019337209
0.0019315552
0.0019314854
0.0019313983
0.0019313908
0.0019314501
0.0019314684
0.0019314179
0.0019313822
0.0019314345
0.0019315304
0.0019336943
0.0019173348
0.0019155014
0.001915524
0.0019156871
0.0019161452
0.0019169484
0.0019171142
0.0019165501
0.0019158672
0.0019155704
0.0019155017
0.0019173983
0.0019031252
0.0019018853
0.0019024143
0.0019039801
0.0019064704
0.0019159962
0.0019169346
0.0019106569
0.0019048594
0.0019030075
0.0019020518
0.0019034258
0.0018914646
0.0018916467
0.0018942306
0.0019051988
0.0018998592
0.0020439214
0.0021503826
0.0019565689
0.0019016719
0.0018973479
0.0018925702
0.0018924429
0.0018834035
0.0018870757
0.0018972914
0.0019942533
0.0068484749
0.022522666
0.027839098
0.014291591
0.0028283079
0.0018905502
0.0018911914
0.0018861099
0.0018805287
0.0018914709
0.0019484615
0.010939684
0.053102176
0.090638517
0.099141776
0.074649254
0.030161987
0.0026784217
0.0019045651
0.0018869596
0.0018835717
0.0019028154
0.0048361993
0.045298874
0.10259494
0.14289808
0.15125305
0.12618809
0.07484643
0.019520833
0.0020291553
0.001895915
0.0018898377
0.0019857615
0.017440064
0.069734135
0.11188581
0.15159919
0.16256443
0.14371109
0.096351718
0.041853719
0.0041571784
0.0019093254
0.001893559
0.0025645969
0.029101438
0.076518382
0.11038771
0.13983422
0.1543444
0.13771362
0.097587419
0.053345363
0.010243497
0.0019337503
0.0018918483
0.0042908076
0.035682924
0.076327973
0.10951863
0.13417817
0.13967078
0.12351593
0.093805401
0.056986419
0.015883451
0.0020508598
0.0018870455
0.0068095212
0.038894183
0.07369241
0.10007335
0.11681193
0.12042685
0.10989118
0.088028508
0.05731811
0.02012184
0.0024024919
0.0018823638
0.0092647994
0.0402119
0.070029526
0.091167041
0.10328491
0.10577334
0.098422942
0.081763944
0.056193009
0.023209771
0.0031242041
0.001880643
0.011348883
0.040576941
0.06625109
0.083674919
0.093156694
0.095047512
0.089410986
0.076036142
0.054468102
0.025410944
0.0041677787
0.0018892995
0.013248574
0.04045341
0.062768438
0.077553431
0.085417308
0.086965725
0.082330792
0.071118337
0.052599489
0.026920273
0.0054191054
0.0019203551
0.0150431
0.040071529
0.059699951
0.072552574
0.079328922
0.080657503
0.076675666
0.066976078
0.050795111
0.027930902
0.0068285039
0.0020085712
0.016629125
0.039562496
0.057045173
0.068422279
0.074404805
0.075577546
0.072063286
0.063493542
0.049137165
0.028608305
0.0082844753
0.0021968651
0.018008658
0.039023398
0.054760895
0.064962661
0.070334226
0.071388608
0.068230957
0.060544045
0.04766066
0.029078042
0.0097106677
0.0025674813
0.019183297
0.038518805
0.052789874
0.062048284
0.066943629
0.067906969
0.065024834
0.058034811
0.046359886
0.029436765
0.011054042
0.0032142477
0.020201321
0.03810985
0.051189986
0.059761343
0.064337827
0.065242719
0.062540087
0.056034762
0.045286779
0.029788162
0.012290761
0.0019974127
0.0019971202
0.0019971081
0.0019971075
0.001997107
0.0019971063
0.0019971061
0.0019971065
0.0019971072
0.0019971077
0.0019971086
0.0019971405
0.0019736075
0.0019707297
0.0019705769
0.0019705181
0.0019704884
0.0019704715
0.0019704679
0.0019704783
0.0019705011
0.0019705409
0.0019706356
0.0019708706
0.0019522799
0.0019498949
0.0019497731
0.0019496685
0.0019496096
0.0019495846
0.0019495804
0.0019495935
0.0019496336
0.0019497134
0.0019498409
0.0019499206
0.0019336686
0.0019315488
0.0019314762
0.0019313929
0.0019313977
0.0019314684
0.0019314886
0.0019314345
0.0019313811
0.0019314262
0.001931523
0.0019315386
0.0019173281
0.0019154842
0.0019155246
0.0019157093
0.0019162702
0.0019171139
0.0019172621
0.0019168102
0.0019159073
0.0019155825
0.0019155062
0.0019154456
0.0019031922
0.0019018477
0.0019024816
0.0019040224
0.0019077313
0.0019169378
0.0019169685
0.001915386
0.0019046825
0.0019031379
0.0019021108
0.0019016872
0.0018917011
0.0018915919
0.0018947171
0.0019037558
0.001905533
0.0021496659
0.0023198058
0.0019822731
0.0018867192
0.0018982989
0.0018928481
0.0018909446
0.0018840409
0.0018870259
0.0019013921
0.0020514892
0.0089217174
0.027810281
0.033475271
0.017970456
0.0034356118
0.0019002918
0.0018922365
0.0018848622
0.0018820094
0.0018916079
0.0019663268
0.013901108
0.059982642
0.099101255
0.1078132
0.082666605
0.035733977
0.0033090897
0.0019067505
0.0018858456
0.0018864484
0.0018997158
0.0063626292
0.051017473
0.11033681
0.15123473
0.15910979
0.13463432
0.081861865
0.023614122
0.0021197529
0.0018946972
0.0018942176
0.0020466856
0.02068093
0.075094807
0.1217929
0.16259621
0.16863386
0.15597723
0.10258118
0.046656947
0.0053497905
0.0019074137
0.0018984354
0.0029206878
0.032549964
0.080555726
0.1183449
0.15435578
0.1599471
0.15306912
0.10820529
0.057402479
0.012350991
0.0019238967
0.0018961377
0.0052645778
0.038824371
0.07976486
0.11396117
0.13965818
0.14475439
0.12882555
0.097660641
0.060374775
0.018438262
0.0020621627
0.0018910631
0.0080365969
0.041638798
0.076554922
0.10327358
0.12041584
0.12407784
0.11335453
0.091062591
0.060203523
0.022665321
0.0024334753
0.00189005
0.010538379
0.04260431
0.072403764
0.093573804
0.10576305
0.10826768
0.10087873
0.084173512
0.058648668
0.025588153
0.0031354651
0.0018952072
0.012878104
0.042670021
0.068248124
0.085594712
0.095038505
0.09692302
0.091312877
0.078011926
0.056571497
0.027550312
0.0041876501
0.0019325877
0.014946315
0.042293039
0.064481704
0.079158937
0.086957868
0.088493148
0.083901535
0.072790368
0.054421633
0.028839686
0.0054800469
0.0020212909
0.016726676
0.041698275
0.061197438
0.073940549
0.080650554
0.08196577
0.078026933
0.068427712
0.05239308
0.029650822
0.006804255
0.0022037438
0.018275531
0.04101567
0.05837353
0.06964819
0.075571312
0.076732207
0.073255771
0.064776451
0.050555043
0.030175449
0.0080791661
0.0025236634
0.019552188
0.040333631
0.055950048
0.066062224
0.071382942
0.072427273
0.069301656
0.061692052
0.048929026
0.030510818
0.0093507397
0.0030418238
0.020589913
0.039697943
0.053863467
0.063047973
0.067901752
0.068856931
0.066000839
0.059073977
0.04749903
0.030733365
0.010616712
0.003789411
0.021408389
0.039165524
0.052174551
0.060692162
0.065237791
0.066136668
0.063453426
0.056994878
0.046318589
0.030923846
0.011712574
0.0019971317
0.0019971081
0.0019971076
0.0019971072
0.0019971067
0.0019971065
0.0019971068
0.0019971074
0.0019971078
0.0019971087
0.0019971749
0.0019707878
0.001970596
0.0019705288
0.0019704981
0.0019704818
0.0019704783
0.0019704882
0.0019705108
0.0019705541
0.0019706672
0.0019735015
0.0019499159
0.0019498032
0.0019496918
0.0019496282
0.0019495989
0.0019495936
0.0019496095
0.0019496543
0.0019497394
0.001949868
0.0019522751
0.0019315599
0.0019315008
0.0019314106
0.0019313838
0.0019314182
0.0019314347
0.0019313968
0.0019313864
0.0019314497
0.0019315374
0.0019336726
0.0019154973
0.0019155217
0.0019156391
0.0019159727
0.0019165497
0.00191681
0.0019162474
0.0019157828
0.0019155506
0.0019154979
0.0019173496
0.0019018441
0.0019023116
0.0019035809
0.0019051191
0.0019106462
0.0019153802
0.0019072676
0.0019045146
0.0019027858
0.001901991
0.0019033037
0.0018914571
0.0018937588
0.0019010683
0.0018885623
0.0019563208
0.0019820782
0.0019079922
0.0019058564
0.0018962016
0.0018922487
0.0018921228
0.0018864166
0.0018950182
0.0019247973
0.0040141838
0.014256999
0.017943302
0.0088258635
0.0022285085
0.0019035462
0.0018894796
0.0018853244
0.0018902035
0.0019085076
0.0064779899
0.040435094
0.074573116
0.082605302
0.059869908
0.020584119
0.0021828651
0.001900806
0.00188527
0.0019055927
0.0029102693
0.034662189
0.08781147
0.12612662
0.13457331
0.11023779
0.061976386
0.013017585
0.0019350284
0.0018934175
0.0019244317
0.011880302
0.059367781
0.10795648
0.14369198
0.15592587
0.13614456
0.085228375
0.033279513
0.002788311
0.0019046913
0.0021662659
0.022507393
0.068227837
0.1054488
0.13768019
0.15301763
0.13439833
0.088768372
0.045691548
0.0069302165
0.00191595
0.0029891908
0.029485167
0.069487063
0.10123557
0.1234846
0.12879589
0.11398592
0.086592332
0.050575206
0.011698628
0.0019674211
0.0046380892
0.033405937
0.067968201
0.093866492
0.10986506
0.11333801
0.10332087
0.082205464
0.051839528
0.01576692
0.0021422745
0.0067563645
0.035405281
0.065245131
0.086388491
0.098402226
0.10086589
0.093610508
0.077056713
0.051492969
0.018974746
0.002564204
0.008804179
0.036350311
0.06220664
0.079818454
0.089393788
0.09130214
0.085622331
0.072137504
0.050414913
0.021495046
0.0033491068
0.010587476
0.036726029
0.059290484
0.074312881
0.082315866
0.083892277
0.079180073
0.067801013
0.049067592
0.023384041
0.0044570855
0.012240633
0.036770949
0.056658627
0.069746611
0.076662328
0.078018769
0.073957855
0.064087382
0.047682477
0.024749658
0.0057758819
0.013848113
0.03661703
0.054348466
0.065943371
0.072051146
0.073248475
0.069663496
0.060935053
0.046364776
0.025704132
0.0071693041
0.015300396
0.036371306
0.052347932
0.062741158
0.068219771
0.069295066
0.066077019
0.058252028
0.045170828
0.026417014
0.0085659876
0.016608748
0.036129035
0.050614572
0.060031534
0.06501441
0.065994815
0.063063384
0.055959328
0.04411663
0.026998084
0.009913813
0.017886026
0.035964224
0.049200443
0.057888562
0.062530143
0.06344779
0.060708577
0.054118943
0.043250159
0.02760374
0.011202483
0.0019972054
0.0019971091
0.0019971078
0.0019971075
0.0019971073
0.0019971072
0.0019971074
0.0019971076
0.0019971079
0.0019971125
0.0019973264
0.0019735146
0.0019706579
0.0019705594
0.0019705214
0.0019705047
0.0019705014
0.0019705111
0.001970536
0.0019705946
0.0019707585
0.001973559
0.0019522865
0.0019498654
0.00194975
0.0019496771
0.0019496412
0.0019496342
0.0019496548
0.0019497073
0.0019498028
0.0019499068
0.0019522902
0.0019336867
0.0019315423
0.001931461
0.0019314004
0.0019313833
0.0019313821
0.0019313871
0.001931424
0.0019315018
0.0019315609
0.0019337017
0.0019173482
0.0019155161
0.0019155479
0.0019156911
0.0019158688
0.0019159083
0.0019157838
0.0019156035
0.0019155232
0.0019155173
0.0019173929
0.0019032282
0.0019020455
0.0019026869
0.0019040322
0.0019048665
0.0019046814
0.0019045153
0.0019032779
0.0019023062
0.0019019229
0.0019033259
0.00189182
0.0018924012
0.0018955991
0.0019062636
0.0019019255
0.0018867396
0.0019058703
0.001899209
0.0018937291
0.0018917039
0.0018919925
0.0018844548
0.0018898251
0.0019025371
0.0019793889
0.0028226482
0.0034261857
0.0022268357
0.0019055689
0.001895201
0.0018870678
0.0018846524
0.0018832561
0.0019012228
0.002043226
0.0098742081
0.03010429
0.035649672
0.020530599
0.0034993271
0.0019063676
0.0018916804
0.0018831372
0.001889378
0.001938184
0.0092165954
0.044216222
0.074795527
0.081752688
0.061879855
0.025232069
0.0026657258
0.0019079124
0.0018881721
0.0018996198
0.002750782
0.027971333
0.068997674
0.096313317
0.10248951
0.085136164
0.049536305
0.010533412
0.0019359769
0.0018964404
0.0019068726
0.0068794008
0.041074451
0.076047359
0.097554919
0.10814226
0.088701403
0.060235046
0.021392301
0.0022409037
0.0019009615
0.0019125485
0.011903642
0.046753601
0.076032816
0.093779219
0.097611472
0.086540806
0.06288189
0.028877579
0.003339441
0.0018992898
0.0019544803
0.016322476
0.048621532
0.073492941
0.088004073
0.091024631
0.082165666
0.062411495
0.033013873
0.0054447899
0.0018978108
0.002086588
0.019851497
0.048746168
0.069881748
0.081742844
0.084142551
0.077024632
0.060558353
0.035112207
0.0079546529
0.0019050048
0.002407341
0.022454099
0.048044853
0.066130587
0.07601768
0.077985815
0.072110946
0.058213003
0.036123484
0.010191128
0.0019505307
0.0030254235
0.024277331
0.046997706
0.062662898
0.071101494
0.072767914
0.067778913
0.05583623
0.036524965
0.01212767
0.0020747457
0.003988774
0.025572381
0.045852141
0.05960416
0.066960225
0.068408135
0.064068946
0.053625444
0.036580531
0.01399675
0.002345332
0.0051855493
0.026489962
0.04473258
0.056960758
0.06347837
0.064759197
0.060919657
0.051651211
0.03644362
0.015723272
0.002842424
0.0064896182
0.02718551
0.043712568
0.054692224
0.060529431
0.06167669
0.058239106
0.049931111
0.036229921
0.017228276
0.0035626278
0.0078371513
0.027763917
0.042817246
0.052740185
0.058020683
0.059060139
0.055948339
0.048437706
0.036030657
0.018517882
0.0044903901
0.0091954772
0.028377013
0.042089735
0.051158198
0.056020893
0.056982159
0.054109438
0.047216265
0.035913409
0.019756723
0.0055475998
0.0019974278
0.0019971303
0.0019971082
0.0019971078
0.0019971077
0.0019971077
0.0019971078
0.0019971079
0.001997109
0.0019971591
0.0019736133
0.0019708171
0.0019706352
0.0019705704
0.0019705457
0.0019705414
0.0019705546
0.0019705949
0.0019706807
0.0019734826
0.0019523151
0.0019499195
0.0019498446
0.0019497675
0.0019497233
0.0019497144
0.0019497405
0.0019498033
0.0019498804
0.0019522893
0.0019337078
0.001931561
0.0019315292
0.0019314744
0.0019314361
0.0019314278
0.0019314515
0.0019315029
0.001931552
0.0019336739
0.001917369
0.0019155217
0.0019155196
0.0019155345
0.001915573
0.001915585
0.0019155533
0.0019155247
0.0019155111
0.0019172908
0.0019032327
0.0019019237
0.001902122
0.0019025341
0.0019030101
0.0019031403
0.0019027889
0.0019023082
0.001901942
0.001903098
0.0018917153
0.0018916148
0.0018927492
0.0018948916
0.0018973412
0.0018982929
0.0018962007
0.0018937312
0.0018918784
0.0018915843
0.0018839057
0.001886548
0.0018909817
0.0019023302
0.0018904525
0.0019001749
0.001903544
0.0018951959
0.0018878487
0.0018841245
0.0018813473
0.0018894691
0.0019044406
0.0019693628
0.0026737273
0.0032873733
0.0021801275
0.0019063198
0.0018944061
0.0018830486
0.0018845604
0.0019012774
0.0019882643
0.0064686006
0.019499368
0.023510675
0.012942263
0.0026611225
0.0019089752
0.0018897473
0.00189062
0.0019130567
0.003564783
0.021657033
0.041840186
0.04653666
0.0331293
0.010492032
0.0020592329
0.0019010241
0.0018938138
0.0019655686
0.0092321153
0.034391563
0.05333912
0.057302377
0.045544617
0.021311182
0.0030251061
0.0019109771
0.0018914279
0.0022209007
0.01550827
0.040870248
0.056982136
0.060293836
0.050449313
0.028796691
0.0057136709
0.0019300622
0.0018858986
0.0029381433
0.020406633
0.043516716
0.057312292
0.060136483
0.051731675
0.032941929
0.0088799788
0.0020048673
0.0018805097
0.0043380747
0.023797597
0.044298013
0.056184868
0.058592339
0.051403352
0.035046152
0.012090588
0.00222589
0.0018773788
0.0062313621
0.026007235
0.044176343
0.054458427
0.056523474
0.050340078
0.036066942
0.014967138
0.0027740309
0.0018781954
0.008143136
0.027503062
0.04361477
0.05258829
0.05438034
0.049005096
0.036478442
0.017431993
0.0038137358
0.0019032863
0.0098709891
0.028528692
0.042867035
0.050782538
0.05235737
0.04763064
0.036542375
0.019354431
0.0053103508
0.0019715497
0.011516171
0.02921658
0.042069116
0.049123564
0.050523837
0.046321864
0.036411514
0.020822213
0.0069475363
0.0021252612
0.013142769
0.029679468
0.041307031
0.047646319
0.048901473
0.045135067
0.036203078
0.021962864
0.0085416172
0.0024254599
0.014665462
0.030055174
0.040630635
0.046345026
0.047474465
0.0440865
0.036008285
0.022949424
0.010057467
0.0029461535
0.01615627
0.030477495
0.040088365
0.045271417
0.046296383
0.043224444
0.035894608
0.023946684
0.011523879
0.001997361
0.001997135
0.0019971105
0.0019971086
0.0019971086
0.0019971087
0.0019971125
0.0019971591
0.001997332
0.001973557
0.00197084
0.0019706804
0.0019706477
0.0019706362
0.0019706678
0.0019707589
0.0019734821
0.0019735679
0.0019522622
0.0019499201
0.0019498687
0.0019498542
0.001949842
0.0019498694
0.0019499079
0.0019522894
0.001952267
0.0019336504
0.0019315553
0.001931536
0.0019315321
0.001931525
0.0019315398
0.0019315629
0.0019336743
0.0019336455
0.0019173131
0.0019155038
0.0019154906
0.0019155045
0.0019155093
0.0019155017
0.0019155206
0.0019172917
0.0019172855
0.001903182
0.0019018596
0.0019019126
0.0019020558
0.001902115
0.0019019963
0.0019019278
0.0019030999
0.0019030999
0.0018916707
0.0018914056
0.0018918429
0.0018925728
0.0018928518
0.0018922544
0.0018917107
0.0018915874
0.0018914539
0.0018838642
0.0018859607
0.0018878079
0.0018911846
0.0018922332
0.0018894778
0.0018870747
0.0018841287
0.0018833376
0.001881299
0.0018880874
0.001893823
0.0019045553
0.0019067196
0.0019007759
0.0018916744
0.0018830534
0.0018801661
0.0018844881
0.0018984684
0.0019065407
0.002028715
0.0021166353
0.0019343683
0.0019078594
0.001889747
0.001882449
0.0018905198
0.0019120019
0.0021343343
0.0041557655
0.0053110561
0.0027731636
0.0019353402
0.001901002
0.0018876242
0.0018936888
0.0019328464
0.0036364114
0.010249519
0.012284203
0.0068558756
0.0022347955
0.0019108743
0.0018905686
0.0018911924
0.0020851628
0.0069338955
0.015899226
0.018354216
0.011582852
0.0033137039
0.0019296066
0.0018885651
0.0018854905
0.0025254314
0.010165675
0.020130226
0.0225849
0.015643598
0.005393234
0.0020035105
0.0018835059
0.0018802269
0.0034750614
0.01319155
0.023210237
0.025514626
0.018860847
0.0078895683
0.0022223477
0.0018782966
0.0018786318
0.0049530324
0.015845148
0.025407364
0.027484595
0.02139127
0.010125245
0.0027654052
0.0018752168
0.0018852047
0.0066731573
0.018100102
0.026914508
0.028781255
0.023292515
0.012062602
0.0037979808
0.0018795895
0.0019235999
0.0083038756
0.019921249
0.027923496
0.029599305
0.024669012
0.013930313
0.0052876925
0.00189988
0.0020229651
0.0098111389
0.021321507
0.028599393
0.030128916
0.025632951
0.015661464
0.0069224845
0.0019655392
0.0022353449
0.011289528
0.022398422
0.029067143
0.030469169
0.026354009
0.017173004
0.0085163143
0.0021073192
0.0026429475
0.012750407
0.023263859
0.029424085
0.030696007
0.026943281
0.018469384
0.010032842
0.0023853034
0.0032694655
0.014214692
0.024193176
0.029774288
0.030890126
0.02755632
0.01971342
0.011499643
0.002853939
0.0019973891
0.0019972663
0.0019971623
0.0019971405
0.0019971749
0.0019973264
0.0019736732
0.0019735569
0.0019734884
0.001970871
0.0019735021
0.00197356
0.001952337
0.0019523109
0.0019522834
0.0019499215
0.0019522766
0.0019522928
0.0019336982
0.0019337224
0.0019336959
0.0019315403
0.0019336752
0.0019337061
0.0019173315
0.0019174248
0.0019174009
0.0019154483
0.0019173539
0.0019173993
0.0019031418
0.0019034214
0.0019034297
0.0019016912
0.0019033095
0.0019033343
0.0018914926
0.0018922901
0.0018924472
0.0018909498
0.0018921299
0.001892003
0.0018833846