/*--------------------------------*- C++ -*----------------------------------*\
  =========                 |
  \\      /  F ield         | OpenFOAM: The Open Source CFD Toolbox
   \\    /   O peration     | Website:  https://openfoam.org
    \\  /    A nd           | Version:  8
     \\/     M anipulation  |
\*---------------------------------------------------------------------------*/
FoamFile
{
    version     2.0;
    format      ascii;
    class       volScalarField;
    location    "226";
    object      omega;
}
// * * * * * * * * * * * * * * * * * * * * * * * * * * * * * * * * * * * * * //

dimensions      [0 0 -1 0 0 0 0];

internalField   nonuniform List<scalar> 
72028
(
9.8512113
9.8563743
8.6192401
8.617743
7.6294306
7.6275377
6.8464522
6.8449093
6.2127664
6.2116078
5.6920367
5.6912729
5.2604321
5.26019
4.9025276
4.9031853
4.6080003
4.6102878
4.3671105
4.3718894
4.1656208
4.1729141
3.9862429
3.9943735
3.8187257
3.825636
3.6621488
3.667282
3.5172634
3.5213009
3.3831561
3.3870432
3.2588327
3.2636398
3.1436458
3.15363
3.0432746
3.0575051
2.9679351
3.0001788
2.9307243
2.9853223
2.9515566
3.0095896
9.8530194
9.8429821
9.8406241
9.840229
9.8408749
9.8448709
9.856604
8.6165014
8.4797553
8.4749422
8.4733053
8.4765153
8.6132438
8.6166193
7.6280779
7.5233805
7.5211228
7.5198596
7.5216871
7.627392
7.6276294
6.8456373
6.7606493
6.7590037
6.7577674
6.7593422
6.8451852
6.8453007
6.212442
6.1418445
6.1400671
6.1386682
6.1405053
6.2118442
6.2122349
5.6922211
5.6328237
5.6306276
5.6289726
5.6312967
5.6913043
5.6921164
5.2612498
5.2114917
5.2090289
5.2070785
5.2098638
5.2600237
5.2612062
4.9041978
4.8643648
4.8627006
4.8605966
4.8632161
4.9031169
4.9041375
4.6107015
4.5831581
4.5856627
4.5841757
4.5839891
4.6112012
4.6104662
4.3707104
4.3585838
4.3669994
4.3651682
4.3621177
4.3751441
4.3700609
4.1695686
4.1693611
4.1851217
4.1836501
4.1874014
4.1798336
4.1683414
3.9897675
4.0009064
4.1139335
4.1918066
4.0268663
4.0041835
3.9881416
3.8211002
3.850416
4.1957235
4.3741854
3.9975317
3.8373893
3.819469
3.6633078
3.7852021
4.3862499
4.7116406
4.0568167
3.6839015
3.6617694
3.5178188
3.7956295
4.6879309
5.0657962
4.2217585
3.5478875
3.5160682
3.3836999
3.89047
4.969483
5.2590128
4.4731819
3.4590027
3.3815709
3.2607229
4.0644628
5.1136681
5.292023
4.703447
3.4623815
3.2567405
3.1469916
4.2699996
5.0997281
5.1958772
4.8182863
3.5980284
3.1410255
3.061985
4.4114636
4.974539
5.0122644
4.7974102
3.7982193
3.0361284
3.0213775
4.4413065
4.783512
4.798695
4.6832812
3.9587262
2.9565153
3.0389385
4.3743608
4.5696032
4.5778764
4.5143164
4.0246578
2.9254471
3.1181647
4.2505628
4.3680771
4.3740038
4.3280095
4.0070564
2.9489042
9.8498547
9.8401484
9.8395935
9.8395725
9.8395766
9.8395757
9.8396425
9.8408452
9.8534482
8.6143163
8.4720312
8.4678165
8.4660259
8.4657157
8.4666873
8.4698121
8.4786153
8.6154261
7.6269351
7.5195556
7.5167887
7.5145865
7.5140949
7.5155146
7.5185431
7.5230779
7.6269869
6.8445965
6.7578969
6.7555515
6.7534197
6.7528803
6.7543692
6.7570592
6.7604674
6.844494
6.2114825
6.1390193
6.1355673
6.132579
6.1318237
6.1339014
6.1375518
6.1416801
6.2113468
5.6914114
5.6294654
5.6242961
5.6198998
5.6187993
5.6218254
5.627084
5.632755
5.6912267
5.2607878
5.2077213
5.2015102
5.1962671
5.1949737
5.1985441
5.2047657
5.2117823
5.260369
4.9044865
4.8614316
4.8578994
4.8565954
4.8563434
4.8571288
4.8597265
4.8655152
4.9033845
4.6123291
4.5844179
4.5946791
4.5652689
4.5792075
4.6025391
4.5898775
4.5858073
4.6098069
4.3742081
4.369626
4.4229614
4.9585776
5.2057495
4.6470875
4.3930442
4.3635564
4.3694856
4.1749914
4.1941106
5.0287112
6.8603145
7.2493767
6.0926805
4.3842888
4.1790884
4.1678387
3.9964455
4.1676147
6.3841428
7.6857114
7.8583946
7.2777135
5.0011255
4.013967
3.9876827
3.8279848
4.4242226
6.9435385
7.5756613
7.6626167
7.3796569
5.9343809
3.868949
3.8189113
3.67004
4.9727656
6.8888013
7.2750987
7.3374543
7.1436568
6.3531411
3.8339776
3.6609248
3.5247623
5.4556705
6.6572655
6.9249566
6.9675257
6.8321793
6.3190052
3.9181473
3.515054
3.3934171
5.6255065
6.3555232
6.5297576
6.5557959
6.4714462
6.1142089
4.1210558
3.3805561
3.2780033
5.536448
6.0146919
6.1182404
6.1321073
6.0846489
5.8569058
4.4001781
3.2561772
3.2136269
5.3343629
5.6612734
5.7176132
5.7236144
5.7005033
5.5667092
4.6330925
3.1429339
3.2485582
5.1086446
5.3184819
5.3434801
5.3440175
5.3375826
5.2684735
4.7195807
3.0439412
3.402839
4.8754092
4.9972907
5.0009071
4.9975792
5.0030728
4.972412
4.6599602
2.9958789
3.5894551
4.6461784
4.7030944
4.6906439
4.6848391
4.698391
4.6947567
4.5107311
3.0114785
3.710468
4.4179452
4.4342728
4.4113386
4.4042481
4.4225748
4.4387568
4.335504
3.1037599
9.8530149
9.8401473
9.8395589
9.8395432
9.8395345
9.8395331
9.8395379
9.8395511
9.8395887
9.8411134
9.8509316
8.6164817
8.4720196
8.4663232
8.4638325
8.4628216
8.4626398
8.4632019
8.4648052
8.4687074
8.4796326
8.6175241
7.6280483
7.5195591
7.5151103
7.511137
7.5089404
7.5084914
7.5098193
7.5128793
7.5175861
7.5229546
7.6287192
6.8456039
6.757904
6.7540401
6.7491924
6.745713
6.7449445
6.7471636
6.7515522
6.7562657
6.7601659
6.8459729
6.2124077
6.1390259
6.1335136
6.1265941
6.121313
6.120088
6.1235513
6.1300074
6.1365889
6.1414457
6.2125602
5.6921848
5.6294692
5.6213219
5.6112743
5.6036571
5.601849
5.6068509
5.6162464
5.6258307
5.6326497
5.6921308
5.2612084
5.207721
5.1979769
5.18653
5.1795772
5.1779302
5.1819393
5.1921715
5.2034092
5.2117061
5.2608191
4.9041477
4.8614229
4.8564528
4.8597568
4.823808
4.8386382
4.8557819
4.8565189
4.8591899
4.8651101
4.9030831
4.6106418
4.5844062
4.6061627
4.8325158
6.4184443
6.9435871
5.50804
4.6133431
4.5923194
4.5843689
4.6083295
4.3706497
4.3696217
4.6400258
7.8010153
9.4097606
9.6368406
8.8831689
5.9972286
4.3770152
4.360113
4.3665364
4.169532
4.1939127
6.4388865
8.889337
9.5023763
9.6172362
9.2707972
8.1583837
4.567732
4.172745
4.1637251
3.9897765
4.1693362
7.573768
8.5614674
8.9511276
9.031565
8.7912705
8.2260315
5.6780128
4.0064631
3.9834547
3.8211469
4.4306294
7.512399
8.1256924
8.4363613
8.5040029
8.3065844
7.8780444
6.5759066
3.8363461
3.8156823
3.6633682
4.9845145
7.2341535
7.6812748
7.892074
7.9336867
7.8060818
7.501597
6.7128263
3.7447465
3.6590541
3.5178747
5.4649999
6.9015585
7.1904987
7.298482
7.3162976
7.2566891
7.0809226
6.5455959
3.7362941
3.5142234
3.3837475
5.6314747
6.5238292
6.6815635
6.7140392
6.7158962
6.7036512
6.6291319
6.2919994
3.8239373
3.3802282
3.260816
5.5399614
6.1257417
6.189916
6.1748425
6.1673551
6.1837055
6.1768726
5.9803603
4.0008389
3.2556003
3.147173
5.3372958
5.7316898
5.7355368
5.693047
5.6806195
5.7126958
5.7471992
5.6433263
4.2324798
3.1395604
3.0629836
5.1112033
5.3587723
5.3255456
5.2686842
5.2540025
5.2937577
5.3517843
5.3110026
4.406596
3.0335089
3.0234694
4.8773334
5.0159965
4.9600357
4.8966642
4.8812339
4.924001
4.9944643
4.9981096
4.4587113
2.9448842
3.0426464
4.6476556
4.7055169
4.6354968
4.5701767
4.5548329
4.5979542
4.674297
4.7094116
4.3973743
2.8858875
3.1234163
4.418873
4.4255755
4.3484192
4.2846537
4.2700662
4.3114648
4.3886407
4.4443375
4.2716095
2.8831823
9.8429819
9.8395934
9.8395431
9.8395261
9.8395178
9.8395161
9.8395203
9.8395322
9.8395552
9.8397086
9.8482469
8.479753
8.4678142
8.4638316
8.4620911
8.4612739
8.4611156
8.4615922
8.4628042
8.4653711
8.4707345
8.6149413
7.523378
7.5167871
7.5111355
7.5071996
7.5048965
7.5044142
7.5058293
7.5089575
7.5137551
7.5182559
7.6278215
6.7606453
6.7555502
6.7491921
6.7426913
6.7382704
6.7372953
6.7401073
6.7457659
6.7525581
6.7564636
6.8455589
6.1418374
6.1355639
6.1265936
6.1164751
6.1089089
6.1072006
6.1121102
6.1214206
6.1314055
6.1373756
6.2123342
5.6328106
5.6242882
5.611271
5.5967691
5.5854954
5.5830171
5.5905815
5.6037473
5.6182461
5.6275855
5.6921198
5.2114688
5.2014942
5.1865208
5.1758024
5.1651726
5.1607293
5.1770252
5.1779458
5.1944228
5.2056986
5.2615374
4.8643278
4.8578739
4.8597355
4.8882541
5.5729129
5.9672366
5.1245101
4.8245485
4.8558909
4.859755
4.9058715
4.5831136
4.5946895
4.8331074
8.2996341
10.183383
10.475458
9.5414502
6.338686
4.5820245
4.5852509
4.6155605
4.3585698
4.42383
7.8063727
10.173011
11.02213
11.194798
10.676848
9.3935798
5.2836834
4.3714074
4.3808083
4.1693922
5.0369469
8.8916998
9.9514465
10.551665
10.804637
10.351592
9.4882641
7.5758083
4.2111626
4.1847748
4.0007743
6.3990195
8.5624553
9.2804594
9.7622853
9.9823452
9.6416998
8.9402756
8.0135342
4.332061
4.0059079
3.8516935
6.9515561
8.1257436
8.704898
9.1863304
9.3099257
8.9639006
8.4271991
7.7399855
4.7362719
3.8355564
3.7882822
6.8940011
7.6807335
8.0545854
8.2968047
8.3511701
8.1918294
7.8867735
7.3990768
5.3020706
3.6798835
3.8010121
6.6611688
7.1898157
7.3662694
7.440692
7.4539285
7.4108623
7.2971176
7.0125979
5.6419261
3.5393365
3.898632
6.3574491
6.6809824
6.7195576
6.6988289
6.6907871
6.7096322
6.7150783
6.587703
5.7051444
3.4287548
4.0753115
6.0154759
6.1894933
6.1445672
6.07545
6.0574263
6.1061392
6.1770919
6.1553026
5.5726973
3.3661534
4.2810626
5.6618659
5.7352692
5.6441142
5.553163
5.5311388
5.5924002
5.6958318
5.7392095
5.3582082
3.3817497
4.4206072
5.3191575
5.3254081
5.2111028
5.1126504
5.0896566
5.1545043
5.2714734
5.3528702
5.1218628
3.4917616
4.4476288
4.9979592
4.9599893
4.8359339
4.7374485
4.7149712
4.7789056
4.8990653
5.0016176
4.8792694
3.6377326
4.378423
4.7035472
4.635504
4.5093861
4.4146174
4.3933401
4.4542193
4.5720167
4.6856225
4.6450657
3.7536578
4.2529806
4.4345894
4.3484535
4.2264827
4.1386775
4.1192228
4.1751415
4.2859362
4.4025049
4.4136535
3.7988195
9.8511882
9.8406243
9.8395725
9.8395345
9.8395178
9.8395094
9.8395073
9.8395118
9.8395229
9.8395452
9.8396148
9.8424939
8.6192053
8.4749432
8.4660257
8.4628209
8.4612737
8.4604853
8.4603273
8.4607972
8.4619256
8.4640836
8.469294
8.6120992
7.6294046
7.5211246
7.5145867
7.5089401
7.5048969
7.5024334
7.5019094
7.5034374
7.5067258
7.5115195
7.5180232
7.6272556
6.846434
6.7590058
6.7534205
6.7457135
6.7382717
6.7331576
6.732026
6.7352826
6.741797
6.749681
6.7565784
6.8449835
6.2127542
6.1400684
6.1325796
6.1213144
6.1089115
6.0998224
6.0978092
6.1035875
6.1149727
6.1272531
6.1368227
6.2114665
5.6920281
5.6306264
5.6198984
5.6036578
5.5854982
5.5715439
5.5694058
5.5761102
5.5948254
5.6121861
5.6259375
5.6908626
5.2604238
5.2090233
5.1962606
5.1795735
5.1651738
5.1117259
5.124981
5.1005814
5.1825622
5.1874386
5.2032467
5.2599906
4.9025163
4.8626881
4.8565848
4.8237837
5.5727231
8.0296397
8.538778
6.9696747
4.9500113
4.8609671
4.8582162
4.9045884
4.6079848
4.585655
4.5653335
6.4218521
10.183776
11.392831
11.587229
10.968432
8.7694608
4.8133596
4.5880135
4.6159252
4.3670999
4.3670012
4.9625214
9.4132714
11.023113
11.923288
12.08193
11.559493
10.357748
7.4248293
4.3779831
4.3849502
4.1656352
4.1849084
6.8707425
9.5048624
10.552366
11.592756
11.79407
11.395648
10.083386
8.7537098
4.6348811
4.1911855
3.9862903
4.116012
7.6913178
8.952405
9.7632399
10.708862
11.121592
10.621115
9.3834891
8.4941345
5.5095169
4.0175034
3.818793
4.2007726
7.5785674
8.4364742
9.1866775
9.9044188
10.032849
9.5921767
8.7921784
8.0734495
6.2618983
3.8599759
3.6622204
4.3945368
7.2766747
7.891642
8.2968265
8.6016464
8.6640086
8.4714925
8.1030919
7.6427887
6.4898134
3.7449781
3.5173313
4.6978973
6.9254492
7.298008
7.4406637
7.5093523
7.521446
7.4820752
7.383051
7.1649951
6.3970667
3.7053612
3.3832224
4.9776385
6.529903
6.7136871
6.6988362
6.6512432
6.6378865
6.6733326
6.717107
6.6671571
6.1635524
3.7986394
3.2589224
5.1186147
6.1183174
6.174634
6.075499
5.9760357
5.9518318
6.0193946
6.1318229
6.1831181
5.8802759
3.9980941
3.1437804
5.1026688
5.7177346
5.6929675
5.5532443
5.4344282
5.4066526
5.4852365
5.6264435
5.7336419
5.5772381
4.1903739
3.0436472
4.9764398
5.3435782
5.2687037
5.1127532
4.9903286
4.9623722
5.0420726
5.1915701
5.3271968
5.2704544
4.3027973
2.9688418
4.7849338
5.0010196
4.8967494
4.7375629
4.6188841
4.5922187
4.668634
4.8162328
4.9643633
4.9712658
4.3174024
2.9324534
4.5707212
4.690784
4.5702995
4.4147355
4.3030151
4.278219
4.3495528
4.4904058
4.6417558
4.6892264
4.255824
2.9542181
4.3690679
4.4115003
4.2847933
4.1387924
4.0371236
4.0147922
4.0792448
4.2089103
4.3558463
4.4301874
4.1495884
9.8563842
9.8402293
9.8395766
9.8395331
9.8395161
9.8395073
9.8395052
9.8395099
9.839521
9.8395432
9.8396129
9.8414531
8.6177548
8.473307
8.4657162
8.4626396
8.4611158
8.4603278
8.4601686
8.4606396
8.4617598
8.4638607
8.4687397
8.4811788
7.6275556
7.5198631
7.5140972
7.5084928
7.5044161
7.5019112
7.5013761
7.5029318
7.5062629
7.5110609
7.5174664
7.5232229
6.8449306
6.7577733
6.7528852
6.7449494
6.7373007
6.7320303
6.7308619
6.734219
6.7409226
6.7490165
6.7561008
6.7602787
6.2116318
6.1386768
6.1318323
6.1200984
6.1072122
6.0978177
6.0957357
6.1017264
6.1134787
6.126278
6.1362168
6.141488
5.6912981
5.6289845
5.6188121
5.6018848
5.5830542
5.5694154
5.567494
5.5743484
5.5924019
5.6107668
5.62513
5.6325116
5.2602175
5.207095
5.1949839
5.178313
5.1614618
5.1249485
5.1493564
5.1215152
5.1740977
5.1860013
5.2023919
5.2110801
4.9032138
4.8606172
4.856415
4.8377721
5.9645028
8.535878
9.0488507
7.5455749
5.0318414
4.8597015
4.8581327
4.8634501
4.6103182
4.5841989
4.5792848
6.9406698
10.474724
11.586335
11.767636
11.189452
9.1967812
4.9516094
4.5901157
4.5810301
4.3719173
4.3652007
5.2046328
9.6388355
11.197621
12.082466
12.204032
11.743636
10.529592
7.8560632
4.403706
4.3541827
4.1729286
4.1837022
7.2489903
9.6233342
10.810811
11.799349
11.681872
11.70551
10.228629
8.9149623
4.8323662
4.1629985
3.9943595
4.1907746
7.8589509
9.0334778
9.9865384
11.126538
10.873472
11.118176
9.7126095
8.5776798
5.8859532
3.9957036
3.8256001
4.3714066
7.6633138
8.5058267
9.3127037
10.034197
10.108555
9.7521791
8.8838264
8.1382496
6.5376032
3.8266344
3.6672431
4.7074799
7.3382005
7.9353424
8.3529439
8.6649489
8.721789
8.5372042
8.1510634
7.6884022
6.6562034
3.7130873
3.5212634
5.0621184
6.968325
7.3176094
7.4551072
7.5220607
7.5332613
7.4965422
7.3988816
7.191098
6.5035742
3.6608801
3.387006
5.2564177
6.5565246
6.7169274
6.6916435
6.6383385
6.6238727
6.6630851
6.7141633
6.6781628
6.2398353
3.6739276
3.2635814
5.2901715
6.1327234
6.1681815
6.0580968
5.9521947
5.9267201
5.9983292
6.1190933
6.1840961
5.9312329
3.760286
3.1534978
5.194532
5.7241141
5.6812947
5.531689
5.4069575
5.3779879
5.460267
5.6091709
5.7286298
5.6103815
3.9146933
3.0572462
5.0111755
5.3444642
5.2545666
5.0901221
4.9626351
4.9336449
5.0165012
5.1726498
5.318847
5.2879272
4.070397
2.9995853
4.7978343
4.9979762
4.8817167
4.7153738
4.5924489
4.5649123
4.6439698
4.7971944
4.9541991
4.978663
4.1643347
2.9843233
4.5772865
4.6851891
4.5552547
4.3936941
4.2784228
4.2528969
4.3264367
4.4720254
4.6307286
4.6908438
4.1690316
3.0082271
4.3735702
4.404558
4.2704376
4.1195349
4.014972
3.9920446
4.0582937
4.19184
4.344739
4.4288131
4.1001743
9.840875
9.8395757
9.8395379
9.8395203
9.8395118
9.8395099
9.8395142
9.8395257
9.8395488
9.8396241
9.8431959
8.4765172
8.4666883
8.4632023
8.4615931
8.4607981
8.4606401
8.4611082
8.4622579
8.4645491
8.4703222
8.6128269
7.5216919
7.5155184
7.5098229
7.5058332
7.5034412
7.502934
7.5044085
7.5076179
7.5124
7.5188137
7.6273001
6.7593512
6.7543778
6.7471728
6.7401174
6.7352921
6.7342246
6.7372911
6.7434403
6.750891
6.7571994
6.8448886
6.1405199
6.1339172
6.123569
6.1121297
6.1036057
6.1017373
6.1071875
6.1177004
6.1290212
6.1376666
6.2113276
5.6313192
5.6218515
5.606879
5.5906112
5.5761339
5.5743584
5.5827611
5.5985126
5.6147717
5.6271944
5.6906504
5.209898
5.1985839
5.1819622
5.1770457
5.1005319
5.1213541
5.1580299
5.1767815
5.1904319
5.2048129
5.2595019
4.8632647
4.8571729
4.8558468
5.1226436
6.9630833
7.5410819
5.9375507
4.8630012
4.8570805
4.8595314
4.9033407
4.5840449
4.6025729
5.5030689
9.5375615
10.965608
11.187454
10.480882
7.8536781
4.6493198
4.588569
4.6131628
4.3621633
4.6452167
8.8819653
10.679588
11.557864
11.742595
11.202557
10.012782
6.5327587
4.3932478
4.3800527
4.1872205
6.0805987
9.2724413
10.359079
11.398347
11.704796
11.206032
9.8426804
8.3826172
4.3885259
4.1863212
4.0257703
7.2703396
8.7939738
9.6459044
10.62439
11.116709
10.520488
9.1960746
8.3265164
4.9050478
4.0091403
3.9938359
7.3770204
8.3092754
8.9668059
9.5932749
9.7514077
9.3138102
8.637669
7.9483693
5.6829996
3.8489239
4.049874
7.141931
7.8086929
8.1938457
8.4721929
8.5374408
8.3549622
8.016108
7.5521687
6.1109954
3.7038944
4.2114779
6.8316371
7.2589192
7.4123862
7.4827068
7.4969105
7.4562777
7.3520668
7.1102546
6.1793519
3.6144761
4.4606225
6.4716616
6.7054546
6.7108349
6.6739257
6.6634482
6.6924304
6.7206509
6.641279
6.0205486
3.6146583
4.6926577
6.0850744
6.1851495
6.1071213
6.0199452
5.9986606
6.0587033
6.1541308
6.1771695
5.776101
3.7475988
4.8111398
5.7009154
5.7138423
5.5932209
5.4857409
5.460562
5.5321635
5.6579007
5.740166
5.5022871
3.9471432
4.7932745
5.337952
5.2946669
5.155202
5.0425317
5.0167624
5.0904594
5.2266795
5.3409689
5.2242685
4.1163043
4.6807999
5.0034341
4.9247355
4.7795079
4.6690505
4.6442012
4.7155673
4.8519967
4.9822022
4.9452884
4.1919478
4.5126374
4.6987257
4.598566
4.4547468
4.3499302
4.3266428
4.393746
4.5252289
4.6617187
4.6779449
4.1745387
4.3268429
4.4228895
4.3119868
4.1756049
4.0795825
4.0584761
4.1194767
4.2414776
4.3764133
4.4277666
4.0949826
9.8448708
9.8396425
9.8395511
9.8395322
9.8395229
9.839521
9.8395257
9.8395389
9.8395634
9.8398575
9.8515517
8.6132394
8.4698136
8.4648064
8.4628055
8.4619273
8.4617613
8.4622587
8.4635875
8.466633
8.4751505
8.6151867
7.6273834
7.5185478
7.5128843
7.5089629
7.5067312
7.5062671
7.50762
7.510673
7.5155109
7.5213066
7.6272787
6.845175
6.7570692
6.7515634
6.7457786
6.7418098
6.740933
6.7434455
6.748525
6.7544337
6.7591908
6.8449829
6.2118349
6.1375697
6.130028
6.121444
6.114996
6.1134988
6.1177118
6.1256298
6.1340445
6.1403633
6.2118918
5.6912997
5.6271133
5.6162791
5.6037821
5.5948408
5.5924343
5.5985306
5.6098722
5.6220776
5.6311169
5.6917701
5.2600308
5.2048094
5.1922144
5.1779759
5.1819752
5.1741301
5.1767652
5.1847706
5.1988698
5.2097713
5.2610261
4.9031438
4.8597813
4.8565538
4.8243227
4.9486312
5.0305511
4.8628198
4.8555814
4.8569126
4.8635953
4.9046163
4.6112474
4.5899224
4.6130742
6.3317464
8.7633755
9.1896532
7.8469504
4.9474679
4.6042298
4.5855479
4.6125945
4.3751836
4.3929921
5.9907616
9.3924319
10.356098
10.527084
10.009614
8.2380457
4.5722697
4.3668337
4.3750923
4.1798192
4.3822169
8.1563761
9.4896341
10.082254
10.226819
9.8412556
9.0302587
6.035816
4.1961501
4.1767155
4.0040729
4.9905311
8.2266827
8.9415583
9.3826097
9.7114604
9.1957089
8.6426204
7.3438657
4.0520157
3.9982771
3.8372013
5.9205605
7.8789942
8.4277489
8.791392
8.8837607
8.6382464
8.1888721
7.4098166
4.0707769
3.8293541
3.6835443
6.3441174
7.5025859
7.8870289
8.1025489
8.1514637
8.0170031
7.7266532
7.167369
4.2175476
3.6710711
3.5474908
6.3133673
7.0818538
7.2973919
7.3828705
7.3994399
7.3529394
7.2169714
6.8543091
4.4980962
3.5257489
3.4567606
6.10921
6.6300241
6.7154432
6.7172015
6.714742
6.7213843
6.6935371
6.4901237
4.8371158
3.3942987
3.4565033
5.8532703
6.1776532
6.1775353
6.1320856
6.1196404
6.1547188
6.1922556
6.1029732
5.0575462
3.2777621
3.5879432
5.5648138
5.7478655
5.6963239
5.6268008
5.6096675
5.6583613
5.7318902
5.7179563
5.0875981
3.2111441
3.7863934
5.2675664
5.352377
5.2719877
5.1919742
5.1730929
5.2270357
5.3183481
5.3523952
4.9748423
3.2220207
3.9480162
4.9720062
4.9950079
4.8995794
4.8166519
4.7975889
4.8522744
4.9507936
5.0142902
4.7871003
3.3412448
4.0163844
4.6944014
4.6747947
4.572514
4.4908195
4.4723785
4.5254517
4.6251188
4.7068511
4.5787947
3.4955032
4.0014745
4.4384655
4.3890919
4.2864023
4.2093017
4.1921547
4.2416618
4.3376649
4.428991
4.3823719
3.6015382
9.8566194
9.840845
9.8395887
9.8395552
9.8395452
9.8395432
9.8395488
9.8395634
9.8396497
9.8423242
8.6166242
8.4786167
8.4687097
8.4653733
8.4640856
8.4638626
8.4645507
8.4666311
8.4708051
8.6124703
7.6276449
7.5230824
7.5175918
7.5137612
7.5115255
7.5110664
7.5124041
7.5155091
7.5189495
7.6279414
6.8453233
6.7604774
6.756277
6.7525708
6.7496943
6.749029
6.7509011
6.7544388
6.7573619
6.8457187
6.2122646
6.1416971
6.1366083
6.1314277
6.1272773
6.1263015
6.1290402
6.1340543
6.1383701
6.2120621
5.6921544
5.6327812
5.6258595
5.6182783
5.6122221
5.6108045
5.6148032
5.6220933
5.628672
5.6910641
5.2612547
5.2118183
5.2034446
5.1944569
5.1874811
5.1860477
5.1904758
5.1988943
5.2068812
5.2592316
4.9041972
4.8655578
4.8592186
4.8558977
4.8609695
4.8597348
4.8570928
4.8569426
4.8608857
4.9017889
4.6105309
4.5858416
4.5923171
4.5817736
4.8118958
4.9485911
4.6480836
4.6042554
4.5848356
4.609735
4.3701096
4.3635564
4.3768327
5.2823244
7.4213498
7.8449485
6.5162927
4.5707986
4.3719916
4.3742535
4.168342
4.1790207
4.5668086
7.5764443
8.7523513
8.9110871
8.3741498
6.0240536
4.199432
4.1806047
3.988076
4.0139574
5.6774307
8.0142916
8.493346
8.5760758
8.3236687
7.3364733
4.2452019
4.0082426
3.819359
3.8682323
6.5758972
7.7408931
8.0723442
8.137547
7.947469
7.4061712
4.6778626
3.8447059
3.6616464
3.8321668
6.7138385
7.3987856
7.6415983
7.6883056
7.5525025
7.1646786
5.3594656
3.6966383
3.5159511
3.9146046
6.5469324
7.012098
7.1640955
7.1913226
7.11093
6.8531092
5.7547812
3.5715473
3.3814655
4.1154697
6.2932465
6.5873786
6.6666089
6.6785491
6.6420512
6.4893948
5.8000503
3.5166221
3.2566334
4.3934593
5.9811014
6.1551486
6.1828865
6.1845356
6.1778982
6.1023827
5.6345102
3.5818833
3.1408741
4.6272858
5.6439334
5.7392721
5.733649
5.7290537
5.7407496
5.7175171
5.412862
3.780105
3.0359579
4.7154004
5.3115774
5.3531321
5.3273584
5.3192484
5.3413994
5.3521562
5.1712972
4.0103892
2.95523
4.6573434
4.9987034
5.0019937
4.9646185
4.9545783
4.9825286
5.0141623
4.9219153
4.166335
2.9228685
4.5090398
4.7099175
4.6860364
4.6420626
4.6310828
4.661979
4.7067527
4.6704023
4.2046157
2.9445229
4.3344304
4.444792
4.4029157
4.3561732
4.3450651
4.3766333
4.4289017
4.4308197
4.1494082
9.8534475
9.8411139
9.8397086
9.8396148
9.8396129
9.839624
9.8398574
9.8423206
9.8519082
8.6154149
8.4796355
8.4707388
8.4692964
8.4687419
8.4703244
8.4751489
8.6124338
8.6157548
7.6269711
7.5229609
7.5182632
7.5180287
7.5174721
7.5188193
7.5213085
7.6279275
7.6270703
6.8444795
6.7601775
6.7564768
6.75659
6.7561131
6.7572117
6.7591988
6.8457111
6.8445189
6.2113377
6.1414637
6.1373968
6.1368435
6.136239
6.1376885
6.1403789
6.2120599
6.2113038
5.6912251
5.6326739
5.6276145
5.6259684
5.6251648
5.6272292
5.6311428
5.6910683
5.6910534
5.2603747
5.2117335
5.2057296
5.2032827
5.202439
5.204863
5.2098107
5.2592433
5.2599047
4.9033947
4.865132
4.8597725
4.8582376
4.8581767
4.8595917
4.8636472
4.9018096
4.9022872
4.609814
4.5843696
4.5852328
4.5879792
4.5900896
4.5886181
4.5855915
4.6097649
4.6075227
4.3694762
4.360091
4.3713662
4.3777393
4.403005
4.3931913
4.3668145
4.3742838
4.365495
4.1678057
4.1727341
4.2111232
4.6346841
4.8256274
4.3843572
4.1959658
4.1806073
4.1623103
3.9876314
4.0064833
4.3338496
5.5103013
5.8730966
4.8905181
4.0505857
4.0081735
3.9818106
3.8188525
3.8364222
4.7422829
6.2621146
6.5286665
5.6638349
4.0656506
3.8445652
3.8140458
3.6608626
3.745319
5.3094334
6.4900244
6.6509305
6.0971728
4.2075816
3.696332
3.6575002
3.514987
3.7375772
5.6461122
6.3978925
6.5005675
6.1695183
4.4836715
3.5708725
3.5125743
3.3804844
3.8261164
5.7079401
6.1642359
6.2379192
6.0141825
4.8223307
3.5151038
3.3783946
3.2561004
4.0035863
5.5751836
5.8805213
5.9300139
5.77164
5.046752
3.5783623
3.2538349
3.1428265
4.2350379
5.3608045
5.5772396
5.609544
5.4994675
5.0812779
3.7748577
3.137719
3.0437179
4.408231
5.1241756
5.2703776
5.2875053
5.222567
4.9709306
4.0047244
3.0330009
2.9952679
4.4596325
4.8812956
4.9712954
4.9784363
4.9443385
4.7841251
4.1615101
2.9467825
3.0102929
4.398025
4.6462611
4.6893746
4.690731
4.6773181
4.5764112
4.2011497
2.8911576
3.101943
4.2723942
4.4144937
4.4303855
4.4287608
4.4273291
4.3803885
4.1470744
2.8951993
9.8510078
9.8482471
9.8424941
9.8414529
9.8431958
9.8515518
8.6175981
8.6149509
8.6121006
8.4811802
8.612829
8.6152112
7.6288025
7.6278419
7.6272596
7.5232268
7.6273051
7.6273245
6.8460594
6.8455913
6.8449927
6.7602881
6.8448996
6.8450462
6.2126478
6.2123782
6.2114833
6.1415056
6.2113481
6.2119696
5.6922179
5.6921735
5.6908877
5.6325395
5.6906823
5.6918602
5.2609023
5.2615958
5.2600215
5.2111197
5.2595471
5.2611283
4.9031532
4.9059224
4.9046146
4.8634958
4.9033987
4.9047315
4.6083718
4.6155873
4.61593
4.5810624
4.6132199
4.6127145
4.3665407
4.3808043
4.3849274
4.354169
4.380065
4.3751879
4.163702
4.1847734
4.1911578
4.1629238
4.1862682
4.1767367
3.983432
4.0059361
4.017477
3.9954314
4.0089453
3.9982036
3.8156775
3.8356158
3.859972
3.8264345
3.8484612
3.8292194
3.6590604
3.6799962
3.7452097
3.7117641
3.7030282
3.6709127
3.5142286
3.5394714
3.7060082
3.6585079
3.6116702
3.5255676
3.3802246
3.4293296
3.7997936
3.6700219
3.6080452
3.3939584
3.2555964
3.3673569
3.9990243
3.7543604
3.7366705
3.2770609
3.1395677
3.3841842
4.1908795
3.9069888
3.9348532
3.2082976
3.0335747
3.4951177
4.3031001
4.0620719
4.1056165
3.2155644
2.9451155
3.6410638
4.3177295
4.1573424
4.1839641
3.3311949
2.8864559
3.7564861
4.2561532
4.1639362
4.1688671
3.4849498
2.8842504
3.8010927
4.1498338
4.0966377
4.0910088
3.592855
9.8510079
9.8515518
8.9075261
8.9038851
9.8482472
9.8431956
8.9025894
8.8982144
9.856513
8.9101824
8.9089426
9.8424941
9.8414534
8.8970973
9.0501561
9.8512122
8.9089789
8.9101787
9.8414529
9.8424944
9.0501506
8.8970959
9.8431959
9.8482471
8.8982145
8.9025886
9.8515518
9.8510079
8.9038846
8.9075257
2.8800389
3.5846727
2.9173687
3.5895846
3.7928356
4.0876268
3.7688871
4.0188909
3.0087304
2.9995059
3.0520085
4.1461092
4.093894
4.0573339
4.1325639
2.9552964
3.053013
3.0041352
4.0956159
4.1486792
4.1329677
4.0593051
4.0907744
3.8005348
4.0212553
3.7749522
3.5933716
2.8846417
3.5963985
2.9239857
9.8519119
8.9056049
9.8566041
8.9070135
9.8534554
9.8423332
8.9048477
8.8971385
8.9070129
9.8423312
9.8534388
8.8971276
8.9048377
9.851912
8.9056063
2.8677178
2.9062989
2.9439218
2.9886591
3.0992159
4.1433446
3.1778184
4.0872995
2.9951357
4.1474882
3.1043259
4.0900712
3.1833158
2.8699349
2.9095964
9.8534309
8.9048255
9.8566192
9.8423293
8.9070144
8.8971065
8.9048398
9.84233
9.8566192
8.8971044
8.9070136
3.1003594
3.1788054
2.946952
4.145893
2.9926538
4.088941
3.1824389
4.1463661
2.9475728
4.0892509
2.9934342
9.8509316
8.9074575
9.8515516
8.9038678
8.907457
9.8515517
8.9038663
2.8831193
2.9216669
3.5908615
3.594356
2.9218736
3.5916244
3.5951467
9.8482464
8.902584
9.8431957
8.8982153
8.902583
9.8431953
8.8982137
10.80665
9.9456233
10.168418
11.398649
11.699573
10.717632
11.14316
10.673181
10.169298
9.9431736
11.697033
11.39214
11.142254
10.711937
9.9831425
9.3079342
9.5142721
10.624695
11.110176
10.048283
10.368269
9.7588043
9.51454
9.3046606
11.109593
10.620254
10.369571
10.045603
3.7986024
3.7733952
4.0899325
4.0206409
3.773642
4.0914842
4.0217954
9.8424938
8.9101453
8.8970978
9.8565123
9.8414534
8.908956
9.0501566
9.8511881
8.8970961
8.9101444
9.8414534
9.8565124
9.0501554
8.9089548
11.591017
11.149138
10.751248
11.680795
11.800579
10.898705
11.157047
10.553069
10.713466
9.9462815
11.705376
10.813797
11.150894
10.17463
10.625143
9.3078868
10.048537
9.9863045
11.114587
9.5168672
10.372646
11.122129
10.244289
10.510729
11.126538
10.873181
10.513805
10.536377
10.70426
10.511304
10.241961
10.873197
11.129015
10.536485
10.513453
9.7627878
10.046658
9.3081959
11.117748
9.9880072
10.371798
9.5176561
4.1480481
3.0027102
4.0588386
3.0088972
4.0950249
3.0521134
4.1327328
2.9566777
4.0600101
3.0060369
4.0984124
3.013839
4.1352951
3.0579781
9.8414529
8.9089883
9.0501516
9.8511894
9.842494
8.9101419
8.8970971
9.8563843
9.050151
8.9089873
9.8424943
9.8511893
8.897095
8.9101411
11.114643
9.5163536
10.37086
9.7640481
10.62484
9.3091367
10.048806
10.87343
10.512754
10.537011
10.708456
11.128049
10.244291
10.515113
11.129513
10.537538
10.516718
11.128557
10.72485
10.515726
10.255055
9.9891447
10.37569
9.5193525
10.640227
9.7700992
10.059158
9.3140729
4.0935832
3.0514492
4.1323862
2.9514949
4.1461158
2.9993354
4.057337
3.0147038
4.1357258
3.0588514
4.1524098
2.9606086
4.0622005
3.0108832
9.843195
8.8982156
9.8482469
8.9025841
8.8982137
9.8482469
8.902582
11.701742
10.716814
11.148901
10.552186
10.811422
9.9456615
10.173113
11.409419
11.149568
10.732219
10.812616
10.559228
10.174388
9.9530332
11.116163
10.048132
10.373681
9.7628172
9.9868112
9.307634
9.5177632
10.639766
10.373544
10.059225
9.9880454
9.7695738
9.5181828
9.314631
4.0877024
4.0189447
3.7932186
3.7691781
4.0244571
3.8073536
3.7803418
9.8515517
8.9038682
9.8509316
8.9074577
8.903867
9.8509316
8.9074566
3.5852017
3.5899786
2.8804701
2.9179116
3.602851
2.8889897
2.9300818
9.8423308
8.9070148
8.8971297
9.8534391
8.9048474
9.8566195
8.89727
8.9070156
9.8534443
8.9051513
4.1440482
2.9894723
4.0877998
3.1004712
3.1791942
2.9542318
4.0902654
3.0017929
3.1185421
3.1825429
9.8519115
8.9056056
9.8423297
8.9048312
8.8971035
9.8566039
8.9070131
9.8534229
8.8972335
8.9051089
9.8566038
8.9070147
8.9056591
2.8684501
2.9073914
4.1468986
3.1805213
4.0896726
2.9482019
2.9942316
3.1173195
4.0886135
3.1810639
2.9502918
2.9966043
2.9343019
9.8515518
8.9075265
8.9038848
9.8431959
8.90259
8.8982145
9.8414533
8.8970975
9.0501561
9.8512113
9.8565128
8.9101821
8.9089427
9.8424942
9.0501512
8.8970967
9.8563743
9.8512122
8.908979
8.9101788
9.8482471
8.8982151
8.9025893
9.8510078
8.9038856
8.9075261
3.5936427
2.9233925
3.5966616
4.0918028
3.7754326
4.0221062
4.0976633
4.0602613
4.1344316
2.9566757
3.0118741
3.0059199
3.0556627
4.1489151
4.1341928
4.0595216
3.011436
2.9552852
3.0551094
3.0042189
3.7993575
4.0214654
3.7740669
2.884987
3.5960603
2.924428
9.5425903
9.8506079
9.5413217
9.8554209
9.5451093
9.8571622
9.5440039
9.8531746
9.5441111
9.853748
9.5461023
9.5423548
9.8564542
9.5442379
9.8511979
9.5412773
9.8518905
9.5446722
9.5413955
9.8567036
9.541026
9.855504
9.5414979
9.8524711
9.8448708
8.9059831
8.8995752
9.8411149
9.8398579
9.046289
9.040652
9.8530194
8.899575
8.905982
9.8398579
9.8411142
9.0406501
9.0462848
9.5448718
9.8518321
9.5434468
9.8522368
9.5425271
9.5412714
9.8543372
4.0010645
3.1868862
3.9519361
4.2697989
4.3787582
4.1914953
4.2871431
3.1261929
3.9562131
3.1951789
4.3807148
4.2724458
4.2880151
4.1932197
9.5415307
9.8524952
9.8408467
8.9023916
9.0444278
9.8408437
9.8396438
9.0444064
9.0369716
9.8498547
9.0444094