/*--------------------------------*- C++ -*----------------------------------*\
  =========                 |
  \\      /  F ield         | OpenFOAM: The Open Source CFD Toolbox
   \\    /   O peration     | Website:  https://openfoam.org
    \\  /    A nd           | Version:  8
     \\/     M anipulation  |
\*---------------------------------------------------------------------------*/
FoamFile
{
    version     2.0;
    format      ascii;
    class       volScalarField;
    location    "226";
    object      p;
}
// * * * * * * * * * * * * * * * * * * * * * * * * * * * * * * * * * * * * * //

dimensions      [0 2 -2 0 0 0 0];

internalField   nonuniform List<scalar> 
72028
(
0.28197879
0.27764511
0.27707611
0.27696737
0.27465782
0.27468788
0.27017318
0.27022219
0.26233805
0.26241238
0.24924601
0.24935848
0.22810621
0.22826742
0.19534158
0.19554534
0.14753625
0.14772092
0.084171618
0.084180779
0.012229979
0.011879698
-0.052102262
-0.052759925
-0.092918325
-0.093542752
-0.10702181
-0.10737963
-0.10199902
-0.10208867
-0.087160892
-0.087105621
-0.069468689
-0.069442767
-0.05266175
-0.052598823
-0.038135397
-0.038056303
-0.026125945
-0.025977114
-0.016232065
-0.016102209
-0.0077340846
-0.007479249
0.27803642
0.27807317
0.27852749
0.27869297
0.27843092
0.27794715
0.2770889
0.27685418
0.27743356
0.27807351
0.278253
0.27780323
0.27721122
0.27688101
0.27448805
0.27518384
0.27609169
0.27634706
0.27569417
0.27501664
0.27448655
0.26991211
0.27085104
0.27225422
0.27264383
0.27162917
0.27070455
0.26988844
0.2619211
0.26324961
0.26543253
0.2660383
0.26444902
0.26313228
0.26186488
0.24859688
0.25036709
0.25364372
0.25455466
0.25215421
0.2503926
0.24849542
0.22716176
0.22913143
0.23368126
0.23494988
0.2315979
0.2296395
0.22701199
0.19413281
0.1953355
0.20076546
0.20227996
0.19826513
0.1971177
0.19396588
0.14633741
0.14452635
0.14907776
0.15032303
0.14698436
0.14903919
0.14625237
0.083593476
0.075321695
0.075365204
0.075282362
0.075388518
0.084393398
0.083769611
0.012866009
-0.0037427411
-0.011683359
-0.014370817
-0.0078104067
0.010158659
0.013456708
-0.050517018
-0.071114371
-0.084874012
-0.089366949
-0.078283615
-0.056122543
-0.049598728
-0.091393698
-0.10807055
-0.12027384
-0.1235047
-0.11483441
-0.097116614
-0.090471308
-0.10614626
-0.11524136
-0.12147665
-0.12294476
-0.11880854
-0.11004876
-0.1054763
-0.10166584
-0.10406419
-0.10594807
-0.10587322
-0.10526593
-0.10355104
-0.10133777
-0.08717072
-0.085458697
-0.084375695
-0.083579411
-0.085100078
-0.087643264
-0.087121116
-0.069572441
-0.065922755
-0.06370225
-0.062815283
-0.064849977
-0.069234533
-0.069689778
-0.052726217
-0.048526546
-0.046287755
-0.045582859
-0.047379714
-0.051989951
-0.052913612
-0.038174511
-0.034174461
-0.032276479
-0.031811882
-0.033201401
-0.037345109
-0.038364643
-0.026151767
-0.022634517
-0.021154271
-0.020905056
-0.021893694
-0.02534458
-0.026319856
-0.016257028
-0.013334415
-0.012260682
-0.012114155
-0.01278567
-0.015567255
-0.016397902
-0.0076952919
-0.0055826154
-0.0050742212
-0.0050625216
-0.0053374249
-0.0074045596
-0.0077746234
0.2776033
0.27865908
0.28005314
0.28118523
0.28154936
0.28098181
0.27974599
0.2783968
0.27748275
0.27694235
0.27834574
0.28015996
0.28154856
0.28187525
0.28098166
0.27929519
0.27758926
0.27683101
0.27466053
0.27643608
0.27902549
0.28105529
0.28153932
0.28021146
0.27776438
0.27538101
0.27447356
0.27017822
0.2727553
0.27676895
0.27997288
0.28074276
0.2786214
0.27478748
0.27112493
0.26985834
0.26233421
0.26617175
0.27247285
0.27760837
0.2788535
0.27541811
0.26932617
0.26362842
0.26180411
0.24921638
0.25467332
0.2642716
0.27232737
0.27430946
0.26885569
0.25942165
0.25086642
0.24838532
0.22803058
0.2349532
0.24855562
0.26044903
0.26344318
0.2552676
0.2415936
0.22972668
0.22682901
0.19522677
0.2020187
0.21870931
0.23412473
0.23813267
0.22734201
0.21004202
0.19592643
0.19369225
0.1474754
0.14977714
0.16430302
0.17851783
0.18230002
0.17233199
0.15666505
0.14493775
0.14590335
0.084368564
0.074851589
0.073982557
0.068028907
0.065888635
0.071658636
0.075018779
0.075399727
0.083423884
0.012767204
-0.013948082
-0.045422694
-0.081840895
-0.091659171
-0.064830887
-0.027357994
-0.0041568821
0.013239961
-0.051638121
-0.088783434
-0.13512188
-0.18131021
-0.19366002
-0.16089801
-0.11057833
-0.072174126
-0.04963415
-0.093043223
-0.12431867
-0.1596502
-0.19117916
-0.19952988
-0.17803065
-0.14158554
-0.10946553
-0.090411424
-0.10767002
-0.1243569
-0.14211627
-0.15617295
-0.15944922
-0.15069341
-0.13322917
-0.11667616
-0.10542914
-0.10273619
-0.10677238
-0.11159762
-0.11382526
-0.11436021
-0.113376
-0.10931159
-0.105293
-0.10130507
-0.087721946
-0.084203578
-0.082170144
-0.079452318
-0.078978997
-0.080768215
-0.083483552
-0.086185766
-0.087104741
-0.069725231
-0.063233518
-0.058434172
-0.054416767
-0.053564926
-0.056162578
-0.061168868
-0.066284927
-0.069683322
-0.052702519
-0.045828724
-0.040502389
-0.036595249
-0.03572495
-0.038253897
-0.043397306
-0.048665414
-0.052879308
-0.038003222
-0.031884769
-0.027042215
-0.023758239
-0.023044922
-0.025150998
-0.029486858
-0.034204002
-0.038296661
-0.025963721
-0.020791423
-0.016873965
-0.014317885
-0.013770223
-0.015393755
-0.018756867
-0.022620889
-0.026258581
-0.016009711
-0.011933444
-0.0090925213
-0.0071966905
-0.0067889833
-0.0079962312
-0.010447154
-0.013300433
-0.016305557
-0.0075774625
-0.0050993271
-0.0034675943
-0.0022352761
-0.0019649163
-0.0027615687
-0.0042646385
-0.0056982487
-0.0075887169
0.27801605
0.27865536
0.28078849
0.28322575
0.28509013
0.2856734
0.28474971
0.28268322
0.28025615
0.27833717
0.28033141
0.27684334
0.2783419
0.28115964
0.2842269
0.28643818
0.28694032
0.28553375
0.28278127
0.27971416
0.27742774
0.27697464
0.27448112
0.27643262
0.28045859
0.2849687
0.28828946
0.28904873
0.28691418
0.28281039
0.2783577
0.27514818
0.27454239
0.26990635
0.27275278
0.27899386
0.28619552
0.29165187
0.29291312
0.28936261
0.28269611
0.27569354
0.27076229
0.26996496
0.26191792
0.26617128
0.27598335
0.28770617
0.29690312
0.29906537
0.29299457
0.28192836
0.27072775
0.26306678
0.26197377
0.24859917
0.25467726
0.26966629
0.2884756
0.30395534
0.30768326
0.29728261
0.27905279
0.26152321
0.25003591
0.24864992
0.2271746
0.2349674
0.25629783
0.2849717
0.31023592
0.31653698
0.29914875
0.27031225
0.24451666
0.22860085
0.22722113
0.19416335
0.20205116
0.22839559
0.2673334
0.30489803
0.31462718
0.28806142
0.246918
0.21354716
0.19462099
0.19422169
0.14639391
0.14983976
0.17306307
0.21016728
0.23651148
0.24095461
0.22680005
0.19086613
0.15964207
0.14385373
0.14650813
0.083676756
0.074948705
0.073109395
0.047903695
0.0053669734
-0.0029565123
0.024990069
0.065469672
0.074985024
0.075264838
0.083928878
0.012960554
-0.013835206
-0.065798451
-0.17492637
-0.26967177
-0.29014118
-0.23002209
-0.11487732
-0.03362102
-0.0026828787
0.013420608
-0.050441759
-0.088725167
-0.16619393
-0.28717869
-0.38205069
-0.40260292
-0.34194983
-0.22711364
-0.1201042
-0.069406692
-0.049831329
-0.091360216
-0.12437086
-0.18421721
-0.25345542
-0.30304853
-0.31534937
-0.28244667
-0.22094505
-0.14989043
-0.10668073
-0.090789346
-0.10615679
-0.12450366
-0.15402956
-0.17839687
-0.195022
-0.19917422
-0.18833783
-0.16721127
-0.13800671
-0.11465516
-0.10575581
-0.10171441
-0.10698441
-0.11387645
-0.11651791
-0.11818316
-0.1187226
-0.1176951
-0.1154695
-0.1110813
-0.10427198
-0.10149135
-0.087236193
-0.084396267
-0.080308836
-0.074404009
-0.070657592
-0.069946118
-0.072317412
-0.07720172
-0.083267564
-0.085931627
-0.087178155
-0.069639205
-0.063379633
-0.055390624
-0.047313289
-0.042295117
-0.041280971
-0.044414116
-0.051074577
-0.059942706
-0.066405818
-0.069694405
-0.052784071
-0.045924545
-0.037483204
-0.029813849
-0.025089438
-0.024118548
-0.027055192
-0.033379597
-0.041925095
-0.048918285
-0.052892891
-0.038223358
-0.031945932
-0.024497544
-0.01808942
-0.014150262
-0.013335677
-0.015779815
-0.021065867
-0.028252316
-0.034504117
-0.038349951
-0.026196045
-0.020828682
-0.014887184
-0.0098700106
-0.0067420272
-0.0060969909
-0.0080312594
-0.012209263
-0.01780993
-0.022868867
-0.026327905
-0.016293651
-0.011957933
-0.0076271529
-0.003829259
-0.0014412907
-0.00094305839
-0.0024255488
-0.0055997044
-0.0097823873
-0.013503243
-0.016424296
-0.0077155628
-0.0051040115
-0.0025313927
8.9246661e-05
0.001846216
0.0022237488
0.0011150421
-0.0011550143
-0.0038983951
-0.0056963755
-0.0078452742
0.27806
0.2800442
0.28322065
0.28663842
0.28918666
0.28997412
0.28871793
0.28587518
0.28243172
0.27948259
0.27800895
0.27742169
0.28015077
0.28422152
0.28843967
0.2914256
0.29209705
0.29020183
0.28645323
0.28215701
0.278636
0.27714663
0.27517198
0.27901636
0.28496322
0.29131219
0.29590827
0.29694964
0.29400295
0.28828138
0.28189754
0.27683644
0.27493738
0.27084007
0.27676058
0.28619013
0.29667688
0.30452699
0.30633017
0.30123061
0.29159201
0.28124788
0.27335319
0.27057411
0.26324136
0.27246697
0.28770204
0.30552665
0.31951917
0.3228047
0.31355646
0.29673051
0.279591
0.26708621
0.26291904
0.25036558
0.26427337
0.28847726
0.31883916
0.34428443
0.3504652
0.33323982
0.30353845
0.27535058
0.25604845
0.25006934
0.22914523
0.24857796
0.2849931
0.33544047
0.38159016
0.39328875
0.36112563
0.30930656
0.26477522
0.23690315
0.2292014
0.19537735
0.21877823
0.26741293
0.3445731
0.4149901
0.43046202
0.38513199
0.30324677
0.23956861
0.20443956
0.19662962
0.14461278
0.16446325
0.21039108
0.2575993
0.27628165
0.28277589
0.26715308
0.23895805
0.18363923
0.15194128
0.14870466
0.075454943
0.074267151
0.047943999
-0.033474002
-0.033480588
-0.013334734
-0.047690973
0.0060450773
0.067835043
0.075011597
0.084571879
-0.0035985383
-0.045302707
-0.17524552
-0.34063947
-0.44772549
-0.4038851
-0.38091761
-0.26656587
-0.094403937
-0.017844336
0.0111326
-0.071019867
-0.13546807
-0.28759145
-0.46465372
-0.56066657
-0.66090835
-0.53885341
-0.37676661
-0.2010042
-0.095143148
-0.054622237
-0.1080464
-0.16019476
-0.25382671
-0.35465877
-0.46463987
-0.49538043
-0.40849943
-0.30255439
-0.20593971
-0.12863252
-0.095729172
-0.11526536
-0.14256569
-0.17863558
-0.21205603
-0.2429094
-0.25160219
-0.22866146
-0.19522341
-0.16177841
-0.12616632
-0.10908034
-0.10414453
-0.11186402
-0.11665528
-0.12061688
-0.12486227
-0.12616955
-0.12290116
-0.11852032
-0.11476794
-0.10667797
-0.10308033
-0.085584557
-0.082317338
-0.074481909
-0.067829982
-0.063967343
-0.063257586
-0.065540457
-0.070858989
-0.078445419
-0.083433699
-0.087672748
-0.066063322
-0.058516267
-0.047356959
-0.038169052
-0.032599916
-0.031471202
-0.034888288
-0.042375194
-0.052814856
-0.06240016
-0.069544283
-0.048650477
-0.040553733
-0.029838512
-0.021133491
-0.015903261
-0.014835501
-0.018039042
-0.025112051
-0.035034133
-0.045096346
-0.052408831
-0.034278093
-0.027076556
-0.01810253
-0.010832395
-0.0064567082
-0.0055637961
-0.0082384092
-0.014156269
-0.022452382
-0.031245557
-0.037758013
-0.02271639
-0.016899251
-0.0098776947
-0.0040988499
-0.00063525001
7.3727049e-05
-0.0020434349
-0.0067403466
-0.013296034
-0.020313805
-0.025727647
-0.013393926
-0.009110495
-0.0038338333
0.00061576788
0.0033420105
0.0039053983
0.0022312171
-0.0014332523
-0.0064268269
-0.011593442
-0.015919241
-0.0056256053
-0.0034758959
8.7323895e-05
0.0034340894
0.0056331936
0.0061027823
0.0047251373
0.0018585096
-0.0017264937
-0.0049222306
-0.0077171779
0.28191374
0.27851034
0.28117024
0.2850787
0.28918012
0.29220761
0.29313971
0.29164917
0.2882637
0.28411097
0.280442
0.2782341
0.27705678
0.27805545
0.28153277
0.28642585
0.29141843
0.29493163
0.29571937
0.29349045
0.28906766
0.2839506
0.27963755
0.27752865
0.27463734
0.27607308
0.28103866
0.28827609
0.2959001
0.30140129
0.3026459
0.29911879
0.29226097
0.28455749
0.27827622
0.27545281
0.27015334
0.2722351
0.27995535
0.29163681
0.30451694
0.31416916
0.31638796
0.31011094
0.29826834
0.28553102
0.2755946
0.2713589
0.26231875
0.26541351
0.27759072
0.29688693
0.31950659
0.33741352
0.34163682
0.32976345
0.30831786
0.28662275
0.27061601
0.2641355
0.24922861
0.25362735
0.27231369
0.30394233
0.34427037
0.37885
0.38733838
0.36375342
0.32383424
0.28675752
0.26144414
0.2518936
0.22809511
0.23367447
0.26045251
0.31024603
0.38158654
0.44891045
0.46577034
0.41891215
0.3443399
0.28242866
0.24458371
0.2317378
0.1953431
0.20077935
0.23417712
0.30500236
0.41504391
0.49858373
0.51664963
0.46414839
0.35845489
0.26393865
0.21390657
0.19967713
0.14755793
0.14912965
0.17868398
0.23679464
0.27641288
0.34404896
0.37311265
0.30389202
0.26013196
0.2055581
0.16015793
0.15133968
0.084213113
0.075456646
0.068249333
0.0055947488
-0.032232632
0.19841944
0.30497957
0.050526221
-0.039942396
0.048780528
0.074211235
0.084835965
0.01227739
-0.011599821
-0.082063642
-0.26986222
-0.44274133
-0.155537
0.38691868
-0.092326395
-0.37291604
-0.1626945
-0.036929021
0.0070791331
-0.052068244
-0.08484287
-0.18179208
-0.38221611
-0.56103995
-0.60505787
-0.75974852
-0.8208174
-0.50204085
-0.27565649
-0.12125655
-0.061930218
-0.092905494
-0.12029884
-0.19161333
-0.30349735
-0.46449269
-0.729393
-0.81910601
-0.58108091
-0.36977853
-0.24645959
-0.14790606
-0.10249654
-0.10702996
-0.1215614
-0.15643153
-0.19530465
-0.24303222
-0.3059112
-0.32407334
-0.27362137
-0.21699158
-0.17572228
-0.13468299
-0.11337215
-0.10202355
-0.10607977
-0.11396423
-0.11833369
-0.12493916
-0.13464064
-0.13748308
-0.12963397
-0.12107007
-0.11606288
-0.10842596
-0.10522658
-0.087194493
-0.084516997
-0.079529486
-0.07073557
-0.064004062
-0.060860121
-0.060340007
-0.061959891
-0.066924236
-0.074943693
-0.082126104
-0.087834322
-0.069503947
-0.063829883
-0.054461568
-0.042335266
-0.032617542
-0.026910392
-0.025760991
-0.029186626
-0.037015823
-0.048167813
-0.05998054
-0.068642725
-0.052695317
-0.046397531
-0.036623383
-0.025110403
-0.01591085
-0.010449525
-0.0093298527
-0.012653666
-0.020081148
-0.03065621
-0.042367457
-0.051223126
-0.038160288
-0.032368573
-0.02377717
-0.014161216
-0.0064600562
-0.0018993671
-0.00096688674
-0.0037374181
-0.0099596078
-0.018803497
-0.028679288
-0.03663427
-0.026145506
-0.021230234
-0.014330547
-0.0067476755
-0.00063657103
0.0029896168
0.0037317681
0.0015268297
-0.0034128008
-0.010432655
-0.018183346
-0.024698647
-0.016247379
-0.012322013
-0.0072046018
-0.0014440131
0.0033415701
0.0062349522
0.0068317355
0.0050639977
0.0011514947
-0.0042680716
-0.010040039
-0.01501514
-0.0077299247
-0.0051289721
-0.0022395884
0.0018443354
0.0056317181
0.0080958968
0.0086220374
0.0070843069
0.0038570354
-0.00022769141
-0.0039989723
-0.0070546312
0.27763509
0.27866981
0.28152765
0.28565475
0.28995995
0.29313176
0.29410778
0.29254667
0.2889986
0.28463511
0.28075085
0.27832791
0.27694243
0.2782284
0.28185218
0.28692011
0.2920815
0.29571064
0.2965244
0.29422252
0.28965272
0.2843583
0.27988583
0.27734092
0.27466185
0.27632057
0.28151395
0.28902582
0.29693125
0.30263514
0.30392606
0.30026963
0.29315984
0.28516966
0.27864829
0.27503366
0.27019414
0.27261455
0.28071366
0.2928852
0.30630608
0.31637294
0.31868906
0.31214237
0.29979821
0.28652991
0.27617876
0.27059936
0.26238123
0.26600454
0.27881855
0.29902943
0.32277015
0.34161288
0.34606446
0.33356599
0.31103074
0.28828804
0.27154338
0.26284
0.24932297
0.25451504
0.2742665
0.30763498
0.35041115
0.38729444
0.39635984
0.37119791
0.32873139
0.2895168
0.26288029
0.24975281
0.22822808
0.23490368
0.26339002
0.31647168
0.39320024
0.46568527
0.48345637
0.43360488
0.353135
0.28683338
0.24667204
0.22831425
0.19550077
0.20222398
0.2380627
0.31453713
0.43037567
0.5165696
0.53591704
0.48083751
0.37191819
0.27027098
0.21657065
0.19444245
0.14767159
0.15025077
0.18218866
0.240868
0.28300945
0.372998
0.40956854
0.32025839
0.26348217
0.21054707
0.16263923
0.14389473
0.084124398
0.075179341
0.065703493
-0.0032491535
-0.014663138
0.30391346
0.42544926
0.11260131
-0.041666153
0.042784653
0.074040532
0.075490967
0.011821901
-0.014494029
-0.091843722
-0.29116386
-0.40487013
0.38640295
0.99318715
0.36463615
-0.38530743
-0.18031723
-0.042279197
-0.0023712949
-0.052795358
-0.08940203
-0.19346279
-0.39644203
-0.64623519
-0.7629095
-0.4245209
-0.81696477
-0.58965242
-0.29353671
-0.12836899
-0.068713804
-0.093541587
-0.12344844
-0.19924471
-0.31537971
-0.49486891
-0.81908823
-0.89526118
-0.64283172
-0.38738796
-0.25604681
-0.15335517
-0.10531942
-0.10735805
-0.12286366
-0.15927214
-0.19894004
-0.25142351
-0.32402274
-0.34138222
-0.28732381
-0.22278808
-0.17900809
-0.13750588
-0.11332386
-0.10205961
-0.10578074
-0.11424662
-0.11860129
-0.1260766
-0.1374506
-0.14045675
-0.13169494
-0.12184606
-0.11643785
-0.10943137
-0.10330478
-0.087076664
-0.083496065
-0.078906034
-0.069874381
-0.063208815
-0.060323904
-0.059835529
-0.061315277
-0.066156531
-0.074266106
-0.082255443
-0.085237377
-0.069418719
-0.062744839
-0.05351787
-0.041237948
-0.031443317
-0.025751962
-0.024597647
-0.02802123
-0.035914776
-0.04720742
-0.059332696
-0.066400925
-0.052583017
-0.045524367
-0.035692995
-0.024091359
-0.014818455
-0.0093240604
-0.0081954948
-0.011539764
-0.019043944
-0.029728619
-0.041548469
-0.049251611
-0.038047301
-0.031767893
-0.023022617
-0.013317943
-0.0055527255
-0.00096292579
-2.2203761e-05
-0.0028121208
-0.0090891767
-0.018032677
-0.02802256
-0.034828256
-0.025971912
-0.020874063
-0.013754802
-0.0060854497
8.093565e-05
0.0037344602
0.0044832885
0.0022620376
-0.0027250421
-0.0098265335
-0.017689056
-0.023174891
-0.016102575
-0.012086111
-0.0067782385
-0.00093632387
0.0039095153
0.0068332141
0.0074368556
0.0056513639
0.0016912881
-0.0038103595
-0.0096747899
-0.013761455
-0.0074878611
-0.005034056
-0.0019583688
0.0022264851
0.0061044228
0.0086222685
0.009160556
0.0075887255
0.0042865494
9.8545987e-05
-0.0037829675
-0.0057111686
0.27840206
0.28095364
0.28472389
0.28869593
0.2916329
0.29253799
0.2910929
0.28781143
0.28379398
0.28026128
0.27811945
0.27777254
0.28095178
0.285506
0.29017801
0.29347274
0.29421305
0.29212421
0.28798247
0.28320583
0.27921658
0.27743322
0.27566054
0.28017796
0.28688229
0.29397462
0.29909703
0.30025777
0.29697664
0.29059658
0.28344268
0.27766087
0.27531263
0.2715906
0.27858188
0.28932316
0.3011936
0.31008099
0.31212551
0.30635434
0.29545
0.28371901
0.27462935
0.27113902
0.2644021
0.2753682
0.29294203
0.31350334
0.32971696
0.33353839
0.3228149
0.30337029
0.28362212
0.26908675
0.26378533
0.25209468
0.26878916
0.29720755
0.33315717
0.36367302
0.37114616
0.35042062
0.3150444
0.28184207
0.25909271
0.25135331
0.23151923
0.25517251
0.29903266
0.36098833
0.4187641
0.43349669
0.39311107
0.32889441
0.27472885
0.2412161
0.23095699
0.19815593
0.22719279
0.28786193
0.38493497
0.46398494
0.48069633
0.43166895
0.33408486
0.25317474
0.2097349
0.19867295
0.14682956
0.17207581
0.22651213
0.26725609
0.30385641
0.32019182
0.28228909
0.25330522
0.19654832
0.15656028
0.15031252
0.07517994
0.071258703
0.02486867
-0.04718673
0.051421668
0.11064573
-0.01867295
-0.024583083
0.058667694
0.074923057
0.084286377
-0.0080261821
-0.064950574
-0.23015461
-0.38549001
-0.090025256
0.36481223
-0.0363879
-0.32605437
-0.13244628
-0.027717045
0.007605312
-0.078375529
-0.16028952
-0.3410852
-0.53313314
-0.8215522
-0.8274374
-0.81894058
-0.44258202
-0.24419978
-0.10960118
-0.06048179
-0.11479491
-0.17737545
-0.28180942
-0.4081794
-0.58062342
-0.64194972
-0.4963714
-0.34053577
-0.23020376
-0.13972959
-0.10107319
-0.11869543
-0.15023207
-0.1879107
-0.22843521
-0.27355407
-0.2872198
-0.25138096
-0.20762883
-0.17022606
-0.13127779
-0.11235125
-0.10508676
-0.11311324
-0.11745913
-0.12278657
-0.12963919
-0.13164498
-0.12620703
-0.12001732
-0.11574044
-0.10789315
-0.10467428
-0.084881954
-0.080608797
-0.072184435
-0.065481778
-0.061966079
-0.061294388
-0.063271505
-0.068562037
-0.076471822
-0.082759862
-0.087767233
-0.064642974
-0.056071987
-0.044338675
-0.034855951
-0.029189387
-0.02801127
-0.031458462
-0.039211275
-0.05011253
-0.061060167
-0.068697766
-0.047213328
-0.038196793
-0.027011074
-0.018020023
-0.01265382
-0.011533872
-0.01481573
-0.022125283
-0.032469165
-0.043626021
-0.05123482
-0.033073329
-0.025112818
-0.015753116
-0.0082264872
-0.003736512
-0.0028084232
-0.0055413019
-0.01166211
-0.020309897
-0.029871631
-0.036589393
-0.021801801
-0.015368009
-0.0080151363
-0.0020359077
0.0015278933
0.0022643725
9.3632096e-05
-0.0047584109
-0.011614466
-0.019118606
-0.024673524
-0.012722733
-0.007981851
-0.0024170033
0.0022348828
0.0050643267
0.0056525169
0.003921683
0.00010223463
-0.0051577162
-0.010726236
-0.014943665
-0.0053003645
-0.0027579291
0.0011175056
0.0047254302
0.0070822426
0.0075889777
0.0061158773
0.003033166
-0.00085306422
-0.0044344439
-0.0069047382
0.27790965
0.2797124
0.28265125
0.28584636
0.28823984
0.2889816
0.28780265
0.28513799
0.28192733
0.27921203
0.27775585
0.27717549
0.27926001
0.28274755
0.28642264
0.28904226
0.28963464
0.28797325
0.28469812
0.28098249
0.27802959
0.27706069
0.27497875
0.27772506
0.28277202
0.28824567
0.29223047
0.29313766
0.29058516
0.28564123
0.28017504
0.27598297
0.27476557
0.27066121
0.27474159
0.28265003
0.29154744
0.29822859
0.29976823
0.29543445
0.28724803
0.27851717
0.27203519
0.27029888
0.26308008
0.26926934
0.28186964
0.29667107
0.30826119
0.31098508
0.30334592
0.28940474
0.2751904
0.26502783
0.26247962
0.25032709
0.25934899
0.27897572
0.30345718
0.32374979
0.32865511
0.31500147
0.29121426
0.26840429
0.2529492
0.2493913
0.22955494
0.24149733
0.27020889
0.30919764
0.34421439
0.35299359
0.32880598
0.28922836
0.25444622
0.23259535
0.2282245
0.19700656
0.20991064
0.24677994
0.30312768
0.35832232
0.3716695
0.33388145
0.27335869
0.22604933
0.19931284
0.19537661
0.1488941
0.15648248
0.19068462
0.23896189
0.26014973
0.26336025
0.25313154
0.21618455
0.17093914
0.14772406
0.14741401
0.084216428
0.074769931
0.065345644
0.0061397649
-0.039383801
-0.042517928
-0.024583283
0.042159065
0.073449551
0.075315514
0.083824412
0.0099818969
-0.027585455
-0.11477265
-0.26650129
-0.3734893
-0.38462889
-0.32601936
-0.19283515
-0.060426147
-0.0091851457
0.011638895
-0.056230264
-0.11048781
-0.22671765
-0.37666336
-0.50297654
-0.58849672
-0.44133442
-0.30369408
-0.15809235
-0.080862479
-0.052863626
-0.097120808
-0.14121455
-0.2206562
-0.30260945
-0.36988208
-0.38701344
-0.3401497
-0.26265304
-0.17802847
-0.11745811
-0.093654798
-0.1099704
-0.13280131
-0.16703609
-0.19530704
-0.21719123
-0.22259811
-0.20732384
-0.18168524
-0.15148556
-0.12090498
-0.10754899
-0.10339199
-0.10896928
-0.11537253
-0.11857328
-0.12118948
-0.12175864
-0.11986562
-0.11700041
-0.11367452
-0.10628685
-0.10228608
-0.087445626
-0.083279176
-0.077150299
-0.070890777
-0.066989965
-0.066114969
-0.068483703
-0.073745008
-0.080869235
-0.085339264
-0.087370101
-0.069012867
-0.061056327
-0.051045701
-0.042392654
-0.037051124
-0.035893392
-0.03917069
-0.046344545
-0.05619274
-0.064748961
-0.069557986
-0.05175281
-0.043333159
-0.033361514
-0.025121106
-0.02009997
-0.019031841
-0.022103504
-0.028881152
-0.03828118
-0.0471752
-0.052614698
-0.037106643
-0.029446578
-0.021054234
-0.014160617
-0.009969408
-0.0090819662
-0.011649926
-0.017303203
-0.025163497
-0.032978601
-0.038017082
-0.025104964
-0.018731229
-0.012202558
-0.0067424516
-0.0034181725
-0.0027207154
-0.0047517688
-0.0092435698
-0.015395207
-0.021681565
-0.025954774
-0.015339372
-0.010433796
-0.0055972431
-0.0014351343
0.0011481388
0.0016932671
0.00010537333
-0.003349171
-0.0079962886
-0.012610603
-0.016037667
-0.0071924908
-0.0042638948
-0.0011556099
0.0018557178
0.0038528564
0.0042864929
0.0030340619
0.00044034843
-0.0027585378
-0.005400411
-0.0076289391
0.27705102
0.27836006
0.28021971
0.28239777
0.2840812
0.28461121
0.28377738
0.28191902
0.27976202
0.27811324
0.27684406
0.27755064
0.27967644
0.28212175
0.28391958
0.28433348
0.28318881
0.28097412
0.27858009
0.27738057
0.27444581
0.27533878
0.27831574
0.28185755
0.2845215
0.2851402
0.28342219
0.28016514
0.2767327
0.27521014
0.26984172
0.27107679
0.27564527
0.28120072
0.28548694
0.28649252
0.28369262
0.27850455
0.27317166
0.27096135
0.26180954
0.26357162
0.27067018
0.27953322
0.28656563
0.28823609
0.28358389
0.27517231
0.2667729
0.26348054
0.24842787
0.25079889
0.26145576
0.27528201
0.28668379
0.2894407
0.2817823
0.26837613
0.25552352
0.25083967
0.22692887
0.22964735
0.24444121
0.26470202
0.28233904
0.28671374
0.27462397
0.25439852
0.23607629
0.23013549
0.19386456
0.19583711
0.21347595
0.23952345
0.26386771
0.2700777
0.25297644
0.22596444
0.20329915
0.19749165
0.146133
0.14484452
0.15960176
0.18371624
0.20564924
0.21026861
0.19617014
0.17078646
0.15080537
0.14893027
0.083639056
0.075313701
0.075016218
0.068068176
0.048910222
0.042735316
0.05848264
0.073220775
0.074843571
0.083296535
0.01334013
-0.0042149547
-0.033532718
-0.094525185
-0.16277668
-0.17993729
-0.13189382
-0.060411462
-0.015816729
0.0077592459
-0.049663828
-0.072175852
-0.12005422
-0.20130498
-0.27573462
-0.29305762
-0.24342803
-0.15771402
-0.092077521
-0.059359107
-0.090469988
-0.10942201
-0.14993777
-0.20623058
-0.24671484
-0.25572576
-0.22961452
-0.17761801
-0.12728442
-0.10005751
-0.10542279
-0.11660735
-0.13809585
-0.16198277
-0.17593335
-0.17883186
-0.16986412
-0.15123352
-0.12611671
-0.11207183
-0.1012476
-0.10520917
-0.11115426
-0.11490758
-0.11620313
-0.11634638
-0.11553456
-0.11353184
-0.10748947
-0.10462813
-0.087015626
-0.086106317
-0.083315646
-0.078536234
-0.075031049
-0.074217509
-0.076353753
-0.080793631
-0.084272084
-0.087939941
-0.069582919
-0.06622407
-0.059971842
-0.052873122
-0.048222973
-0.047180416
-0.050044506
-0.056151456
-0.063061065
-0.068855966
-0.052810717
-0.048609921
-0.041947784
-0.035073342
-0.030692168
-0.029711997
-0.032427762
-0.03825424
-0.045525741
-0.051052001
-0.038272749
-0.034163656
-0.028267876
-0.022479333
-0.018827244
-0.018021834
-0.020283302
-0.025145129
-0.03154392
-0.036086043
-0.026241806
-0.022592371
-0.017821017
-0.013314895
-0.010448143
-0.0098197112
-0.011597783
-0.015385001
-0.020414136
-0.024041615
-0.016333549
-0.013279442
-0.0097896352
-0.0064400182
-0.0042780337
-0.0038065451
-0.0051486364
-0.0079922183
-0.011665707
-0.014350835
-0.0077298291
-0.0056809251
-0.0039004288
-0.0017345049
-0.00023419734
9.9527592e-05
-0.00085055615
-0.0027578658
-0.004977033
-0.0062017302
0.2774333
0.27829796
0.27944559
0.28040834
0.28072207
0.28023879
0.27919714
0.2781047
0.27738383
0.27678983
0.27738816
0.27859812
0.27960309
0.2798564
0.27919367
0.27801456
0.27737388
0.27682471
0.27443055
0.27510524
0.27679488
0.2782375
0.27861459
0.27763444
0.27596557
0.27520245
0.27446881
0.26981024
0.27071422
0.27330606
0.27554945
0.27613815
0.27459668
0.27201331
0.27095173
0.26984275
0.26174919
0.26301274
0.2670323
0.27056171
0.27149136
0.26904314
0.26499845
0.26346737
0.26176899
0.24832303
0.24997748
0.25599012
0.26138063
0.26281199
0.25903152
0.2529071
0.2508219
0.24832301
0.22676107
0.22854353
0.23684834
0.24451473
0.24657983
0.24112478
0.23253228
0.23011014
0.22673825
0.193625
0.19457971
0.20441062
0.21385155
0.21644908
0.20959575
0.1992182
0.19745291
0.19359099
0.14584748
0.14385
0.15197905
0.16016389
0.16248988
0.15635299
0.14758673
0.14887508
0.14584426
0.083391212
0.07532011
0.075162467
0.074349372
0.0739082
0.074654065
0.075138401
0.083226312
0.083493098
0.013241097
-0.0025690607
-0.017600007
-0.036744957
-0.042254201
-0.02788802
-0.0093574967
0.0076874336
0.013509813
-0.049597942
-0.069267312
-0.094973237
-0.12124327
-0.12817912
-0.10947582
-0.080954676
-0.059408376
-0.049200524
-0.090355817
-0.10656578
-0.1286813
-0.14808695
-0.15312128
-0.13934683
-0.11743532
-0.10007347
-0.089993034
-0.10537436
-0.11459523
-0.12640581
-0.13492472
-0.1373106
-0.13082977
-0.12079035
-0.11205818
-0.10515386
-0.10126027
-0.10429682
-0.10699841
-0.10860766
-0.1092954
-0.10754203
-0.10605783
-0.10458945
-0.10120634
-0.087067734
-0.086022537
-0.083729681
-0.082246583
-0.082174999
-0.082512289
-0.085075889
-0.087900415
-0.087096143
-0.069652342
-0.066530105
-0.062618804
-0.060060112
-0.05929058
-0.060905026
-0.064509051
-0.068826194
-0.069681632
-0.052856743
-0.049034506
-0.045250243
-0.042421585
-0.041523703
-0.043531577
-0.046969445
-0.0510362
-0.052918593
-0.038279671
-0.034605966
-0.031352166
-0.028716225
-0.028007689
-0.029814815
-0.032818985
-0.036086375
-0.038397327
-0.026246536
-0.022947559
-0.020392617
-0.018209695
-0.017679418
-0.019081721
-0.021568471
-0.024060583
-0.026399541
-0.016296985
-0.013556461
-0.011653097
-0.010058874
-0.009666317
-0.010704347
-0.012536456
-0.014387344
-0.016449159
-0.0075778736
-0.005722197
-0.004958758
-0.0040079383
-0.0037751959
-0.004430902
-0.0053524874
-0.006254794
-0.0078634474
0.28036859
0.27797508
0.2781985
0.27829597
0.27809282
0.27775242
0.27694181
0.27710971
0.27749283
0.27730929
0.27740696
0.27704552
0.2745001
0.27489607
0.27541381
0.27499822
0.27528309
0.27474338
0.26991768
0.2705282
0.27131458
0.27055754
0.2711036
0.27027153
0.26192162
0.26286808
0.26408455
0.26278935
0.26374083
0.26244426
0.24859449
0.25001542
0.25183663
0.24969013
0.25129522
0.24934342
0.2271691
0.22915185
0.23167937
0.22823779
0.23087916
0.22815742
0.194186
0.1965991
0.1996292
0.19435373
0.19856902
0.19528352
0.14650744
0.14871669
0.15132517
0.14380212
0.15017958
0.14729065
0.083978926
0.084647473
0.084880529
0.075415147
0.084137938
0.083679413
0.013520603
0.011266432
0.0071827702
-0.0023984309
0.0074857929
0.011505335
-0.049711461
-0.054477777
-0.061809237
-0.068683074
-0.060525037
-0.052940196
-0.090691265
-0.095626167
-0.10240763
-0.10525631
-0.10103667
-0.093654352
-0.10570545
-0.10903971
-0.11332458
-0.11325892
-0.11226241
-0.10748409
-0.10149303
-0.10309647
-0.10522427
-0.10326213
-0.10456221
-0.10217112
-0.087212684
-0.087719494
-0.087860585
-0.085205694
-0.087658492
-0.087240162
-0.069741714
-0.069603704
-0.068690123
-0.066382451
-0.068610243
-0.06942816
-0.052938271
-0.052468191
-0.051273126
-0.049250997
-0.051167349
-0.052485704
-0.038388353
-0.037818579
-0.036686139
-0.034833389
-0.036543308
-0.037891872
-0.026356173
-0.025782914
-0.024749654
-0.023182715
-0.024652626
-0.025832562
-0.016436581
-0.015958733
-0.015049134
-0.013763019
-0.014945049
-0.0159248
-0.0078343065
-0.0077342362
-0.007081713
-0.0056937154
-0.0069225382
-0.0075459107
0.28033884
0.27768325
0.27719771
0.27725005
0.27794225
0.27803729
0.27730421
0.27758986
0.27757285
0.2774058
0.27724978
0.27816315
0.27825666
0.27767142
0.27781333
0.28198897