/*--------------------------------*- C++ -*----------------------------------*\
  =========                 |
  \\      /  F ield         | OpenFOAM: The Open Source CFD Toolbox
   \\    /   O peration     | Website:  https://openfoam.org
    \\  /    A nd           | Version:  8
     \\/     M anipulation  |
\*---------------------------------------------------------------------------*/
FoamFile
{
    version     2.0;
    format      ascii;
    class       surfaceScalarField;
    location    "226";
    object      phi;
}
// * * * * * * * * * * * * * * * * * * * * * * * * * * * * * * * * * * * * * //

dimensions      [0 3 -1 0 0 0 0];

internalField   nonuniform List<scalar> 
215364
(
-3.3090158e-06
0.00099028882
-0.00013502474
-5.7661605e-06
1.2148044e-05
0.0020781432
0.0001183611
-0.0012121876
4.870532e-07
-3.0498144e-06
0.0012147506
-0.0023841436
-1.7990497e-07
3.3667547e-07
-8.7207509e-06
0.0023927083
-0.0012168739
-9.538582e-08
0.0012176559
-6.8645752e-07
-0.002398948
2.1300014e-08
1.4688618e-08
0.002401901
-2.9883507e-06
-0.0012212839
-2.5873039e-07
0.001222977
-1.4341974e-06
-0.0024086933
5.2223474e-08
5.362348e-08
0.0024132791
-4.6910372e-06
-0.0012298232
-5.1254108e-07
0.0012328039
-2.4680288e-06
-0.0024259591
7.2583203e-08
1.3504537e-07
0.0024331105
-7.3582548e-06
-0.0012443676
-8.8679645e-07
0.0012492612
-4.0066054e-06
-0.0024548609
8.5107207e-08
2.826855e-07
0.0024658662
-1.1372917e-05
-0.0012677453
-1.4420764e-06
0.0012753798
-6.1922531e-06
-0.0025010794
1.2239919e-07
4.9331685e-07
0.0025176344
-1.717094e-05
-0.0013034015
-2.1984389e-06
0.0013146156
-9.0157946e-06
-0.0025714443
1.7114736e-07
7.9021942e-07
0.0025952773
-2.4795959e-05
-0.0013541354
-3.0810754e-06
0.001369239
-1.2022807e-05
-0.0026716362
2.3319186e-07
1.1373069e-06
0.0027034317
-3.3167317e-05
-0.0014193443
-3.8198668e-06
0.0014372028
-1.4038899e-05
-0.0028006879
3.1341444e-07
1.3917563e-06
0.0028381697
-3.918996e-05
-0.0014913013
-3.9738287e-06
0.0015086503
-1.3375435e-05
-0.0029434341
4.0247376e-07
1.335062e-06
0.0029798804
-3.8185965e-05
-0.0015548001
-3.3314691e-06
0.0015675022
-9.3708932e-06
-0.0030694073
4.6630715e-07
8.7247028e-07
0.003096311
-2.82437e-05
-0.0015957955
-2.2258085e-06
0.0016019297
-3.9086058e-06
-0.0031503622
4.7959942e-07
2.0148997e-07
0.003163834
-1.415346e-05
-0.0016114931
-1.1893429e-06
0.0016121912
4.9106112e-07
-0.0031810167
4.5034896e-07
-3.6896825e-07
0.0031835692
-2.6340169e-06
-0.0016087224
-4.3351356e-07
0.0016061685
2.9873052e-06
-0.0031752248
4.0220868e-07
-7.156403e-07
0.0031712848
4.2534818e-06
-0.0015959762
-2.7174527e-08
0.0015920734
3.9298232e-06
-0.0031499201
3.4902721e-07
-8.4106433e-07
0.0031433567
7.0555857e-06
-0.0015798291
2.3718492e-07
0.0015757605
3.8313389e-06
-0.0031181541
3.0616952e-07
-8.8563019e-07
0.0031112556
7.4781895e-06
-0.0015640226
4.2849516e-07
0.0015603378
3.2563092e-06
-0.0030867909
2.9935932e-07
-8.9091353e-07
0.003080563
6.8196519e-06
-0.0015500139
4.8894079e-07
0.0015468342
2.6906037e-06
-0.0030586673
2.8950293e-07
-8.3106334e-07
0.0030533377
5.8713732e-06
-0.0015379656
3.8488904e-07
0.0015351998
2.3808676e-06
-0.0030338628
3.7310698e-07
-7.5901183e-07
0.0030292021
5.0467946e-06
-0.0015272272
1.5556307e-07
0.0015245754
2.496208e-06
-0.0030109917
5.7914289e-07
-7.9801106e-07
0.0030060609
5.1499071e-06
-0.0015121164
-7.8016352e-07
0.0014968616
1.6035043e-05
1.4403192e-06
-0.0029748479
-1.9704334e-06
0.0029423484
3.3029801e-05
-9.5430585e-06
-9.6767718e-05
2.567624e-05
0.0033548247
1.3505018e-05
-2.1161789e-05
-1.6174653e-05
1.4355483e-05
0.002964236
3.9985251e-05
-3.0200977e-05
-9.9086966e-06
7.1448752e-06
0.0028587575
2.7332423e-05
-1.463782e-05
5.2292205e-08
-2.1282778e-06
0.0027942509
1.4083182e-05
-3.6937208e-05
9.9483701e-06
-1.180649e-05
0.0028849685
3.3428325e-05
-1.5562101e-05
1.6181344e-05
-1.6063468e-05
0.0030169466
3.6989362e-05
9.6768749e-05
9.2024069e-05
0.0022786458
5.9305408e-05
-0.0033901033
7.9979493e-08
2.295832e-07
5.1855379e-07
1.3899185e-06
0.0033878877
-7.106897e-06
-0.011452033
-9.8039094e-06
4.1507617e-05
0.011341233
0.00013333918
-1.7568182e-05
-1.7618591e-06
2.099095e-06
-2.827354e-05
-2.8816165e-06
1.2611663e-06
-2.2013108e-05
-0.011288429
-3.6749108e-05
2.1401274e-05
0.011240393
8.6744228e-05
-1.5190902e-05
5.0531314e-06
8.8024564e-06
9.9501626e-06
-0.011108227
-9.0424643e-08
-2.1348513e-05
0.011068037
5.1692229e-05
-2.4661568e-05
-0.011430063
-4.1644283e-05
0.011352537
0.00012413723
3.6840101e-05
-2.2357498e-05
3.1154973e-06
2.1087833e-06
-0.0028506043
-5.2462168e-06
9.8356342e-06
-6.5091452e-06
2.2726948e-05
0.0028297995
-0.002432
-1.9633027e-07
8.8557296e-07
-9.1604068e-07
0.0024322278
6.558044e-07
-0.0033876563
5.7798888e-07
-1.0001132e-06
0.0033892145
-1.7895437e-06
2.9015787e-06
2.9976125e-07
-0.011288562
6.8476739e-07
0.011272273
-3.2785139e-06
-1.7407887e-07
5.1833843e-06
7.5668716e-06
3.0810242e-06
-8.5228848e-06
8.5584474e-06
-5.0669478e-07
-1.9798898e-06
-0.011201498
1.8868342e-06
0.011188294
-9.1607209e-06
-1.8145638e-06
1.1657982e-05
1.3133505e-05
2.3235167e-05
-0.011046783
1.2929454e-07
-2.1598947e-06
0.011040799
-1.5206647e-05
-1.0397514e-06
-0.011302544
-9.7378919e-07
0.011286015
-3.3334314e-06
2.2738243e-06
9.3840235e-08
1.0352356e-05
9.1686919e-06
1.9478906e-06
-0.0028184029
-2.3704076e-07
8.0456558e-07
0.0028154065
4.8346126e-07
-0.002434033
-5.1400841e-07
2.5570103e-07
0.0024356385
-1.3461101e-06
1.4783513e-06
-0.0033991188
1.3812095e-06
-2.6418353e-06
0.0034038019
-4.8986881e-06
8.973869e-06
4.1245586e-06
-0.011277392
-1.8298999e-05
0.011298351
-6.2497808e-05
7.7089683e-06
1.0627401e-05
1.2699594e-05
6.2427279e-06
-2.2522312e-06
1.172271e-05
1.0074355e-05
1.3722511e-05
-0.011191851
-7.1170491e-06
0.011208994
-8.2289085e-05
8.9231869e-06
1.9004499e-05
2.0551511e-05
6.2510185e-05
-0.011046995
2.5961835e-07
6.6067031e-06
0.011064623
-8.6988681e-05
8.6461414e-06
-0.011289592
1.7842716e-05
0.011308301
-7.3544054e-05
-1.3226544e-05
9.4152304e-06
1.6755086e-05
1.5414662e-05
6.261512e-06
-0.0028226835
-4.0288319e-06
3.7797082e-06
0.002823903
-7.2296002e-06
-0.0024433982
-1.2830762e-06
6.9108434e-07
0.0024469544
-2.9633666e-06
2.547106e-06
-0.003423271
2.4529345e-06
-4.690144e-06
0.0034317166
-8.7537749e-06
1.6319537e-05
8.1976107e-06
-0.01133376
-3.6475731e-05
0.011384418
-0.0001220557
1.6038182e-05
1.8040766e-05
2.0395364e-05
1.0253194e-05
2.6935044e-06
1.5946996e-05
2.2053636e-05
2.8115887e-05
-0.011239272
-1.4930441e-05
0.011283789
-0.00016345305
2.1360001e-05
3.022822e-05
3.2123233e-05
0.00011509446
-0.011094174
3.7053595e-07
1.4203855e-05
0.011137157
-0.0001726343
1.915584e-05
-0.011340983
3.5841473e-05
0.011388535
-0.00014587115
-2.741569e-05
1.9471344e-05
2.64749e-05
2.4803579e-05
1.1341849e-05
-0.0028402996
-8.0654236e-06
7.0496073e-06
0.0028450741
-1.5098891e-05
-0.0024612542
-2.3201585e-06
1.2788766e-06
0.0024674129
-5.1170106e-06
4.1050278e-06
-0.0034644545
4.0351872e-06
-7.6766682e-06
0.00347835
-1.4358189e-05
2.6986105e-05
1.392087e-05
-0.011452537
-6.1182907e-05
0.011541371
-0.00020462913
2.7626943e-05
2.9024017e-05
3.2116695e-05
1.6090976e-05
8.884112e-06
2.2340313e-05
3.8834441e-05
4.7489503e-05
-0.011344899
-2.5327036e-05
0.011425991
-0.00027789096
3.8625377e-05
4.7336558e-05
4.9854709e-05
0.0001913084
-0.011196053
5.0050275e-07
2.4342201e-05
0.011274373
-0.00029445473
3.3766895e-05
-0.0114532
6.0345758e-05
0.011538326
-0.00024661839
-4.6550716e-05
3.3527551e-05
4.1316587e-05
3.9096042e-05
1.8691921e-05
-0.002872528
-1.3749406e-05
1.1703727e-05
0.0028819856
-2.6102794e-05
-0.0024911918
-3.8697012e-06
2.1569238e-06
0.0025011931
-8.2882574e-06
6.3034406e-06
-0.0035303412
6.2858175e-06
-1.1921226e-05
0.0035519749
-2.2300165e-05
4.220755e-05
2.196298e-05
-0.011654994
-9.6009929e-05
0.011798064
-0.00032204754
4.4028156e-05
4.4590716e-05
4.8928338e-05
2.4254194e-05
1.7441046e-05
3.1586186e-05
6.2708308e-05
7.4901302e-05
-0.011531477
-4.0064701e-05
0.011666676
-0.00044345889
6.3130097e-05
7.2044215e-05
7.5555204e-05
0.00030060016
-0.011376594
6.9775522e-07
3.8708771e-05
0.011508195
-0.00047158915
5.4502907e-05
-0.011648175
9.4940707e-05
0.011787779
-0.00039120644
-7.3651353e-05
5.3476152e-05
6.2718295e-05
5.9626404e-05
2.916012e-05
-0.0029253392
-2.1753619e-05
1.8283456e-05
0.0029413824
-4.173311e-05
-0.0025388315
-6.0944759e-06
3.4211923e-06
0.0025543043
-1.2800607e-05
9.1228872e-06
-0.0036301793
9.1652181e-06
-1.7378594e-05
0.0036617798
-3.2509432e-05
6.1983544e-05
3.2220894e-05
-0.011975425
-0.00014116891
0.012191448
-0.00047606308
6.5408684e-05
6.4406798e-05
7.057425e-05
3.4407451e-05
2.8606003e-05
4.3627351e-05
9.409764e-05
0.00011075213
-0.011837553
-5.9428057e-05
0.012050204
-0.00066669791
9.5428704e-05
0.00010412693
0.00010910452
0.00044436131
-0.011675395
9.9008863e-07
5.7552325e-05
0.011884761
-0.00071223036
8.1700419e-05
-0.011962605
0.0001398616
0.012177947
-0.00058391037
-0.00010910083
7.9545809e-05
9.0487874e-05
8.6100391e-05
4.2752261e-05
-0.0030068913
-3.1978772e-05
2.6717521e-05
0.0030315771
-6.2177057e-05
-0.0026107968
-8.9667732e-06
5.0693698e-06
0.0026333045
-1.8612463e-05
1.2124015e-05
-0.0037711207
1.2164948e-05
-2.3150345e-05
0.0038133658
-4.3384647e-05
8.3277804e-05
4.2886415e-05
-0.012449007
-0.00018931823
0.012747955
-0.00064437504
8.8696897e-05
8.4847129e-05
9.3318833e-05
4.4392169e-05
4.086855e-05
5.6463545e-05
0.00012858928
0.00014935552
-0.012309781
-8.0417476e-05
0.012618297
-0.0009202504
0.00013117913
0.00013808493
0.0001449581
0.00060154168
-0.012141962
1.4330183e-06
7.7781541e-05
0.012449585
-0.00098836216
0.00011160341
-0.012437905
0.00018780443
0.012743482
-0.00079956409
-0.00014722272
0.00010795751
0.0001199606
0.00011389066
5.7482387e-05
-0.0031245526
-4.263645e-05
3.5577714e-05
0.0031587619
-8.463577e-05
-0.0027120977
-1.1994857e-05
6.8485293e-06
0.0027420765
-2.4835709e-05
1.4198083e-05
-0.0039507853
1.4057759e-05
-2.6990689e-05
0.004000356
-5.0839346e-05
9.7877461e-05
4.9427694e-05
-0.013082964
-0.000219829
0.013441478
-0.00075982056
0.0001051978
9.7091634e-05
0.00010770334
4.9331302e-05
4.9679339e-05
6.4811314e-05
0.00015273439
0.00017372122
-0.01297209
-9.3804485e-05
0.013360446
-0.0011047128
0.00015674766
0.00015911078
0.00016783224
0.00070810675
-0.012804808
2.0570064e-06
9.0171292e-05
0.013199629
-0.001195174
0.0001329375
-0.013090164
0.00021821874
0.013465246
-0.00095271229
-0.00017106938
0.00012775431
0.00013874931
0.00013101916
6.80075e-05
-0.0032782746
-4.9213254e-05
4.127376e-05
0.0033192935
-0.00010109223
-0.0028408377
-1.3966474e-05
8.1096279e-06
0.0028759066
-2.9216886e-05
1.3768563e-05
-0.0041479597
1.3237834e-05
-2.5881484e-05
0.0041959875
-4.9157608e-05
9.3786132e-05
4.5651795e-05
-0.013803527
-0.00020548763
0.014144849
-0.00072104697
0.00010190375
8.96118e-05
0.00010101976
4.3432719e-05
4.8173696e-05
6.1600697e-05
0.00014572117
0.00016219474
-0.013765018
-8.7867744e-05
0.014154957
-0.0010635064
0.0001506609
0.00014668782
0.00015613443
0.0006680684
-0.013614797
2.374709e-06
8.3924374e-05
0.014017222
-0.0011568307
0.00012834178
-0.013849535
0.00020426578
0.014216893
-0.00091361376
-0.00015973921
0.00012236815
0.00012971716
0.00012126402
6.6615367e-05
-0.0034504095
-4.5530134e-05
3.8913251e-05
0.003489856
-9.9451359e-05
-0.0029817681
-1.3270043e-05
7.9751743e-06
0.0030157268
-2.8668018e-05
1.0075885e-05
-0.0043224565
9.2268216e-06
-1.8783052e-05
0.0043578813
-3.594898e-05
6.6708768e-05
3.0119529e-05
-0.01444205
-0.00014462832
0.014677964
-0.00050099866
7.3815629e-05
6.0592094e-05
7.0769453e-05
2.694818e-05
3.433685e-05
4.6389681e-05
0.00010086294
0.00011552377
-0.014499436
-6.4248865e-05
0.014767393
-0.00073188862
0.00010569166
9.8760113e-05
0.00010730615
0.00046194395
-0.014371423
3.3955464e-06
5.8980181e-05
0.014638909
-0.00079184395
9.1314752e-05
-0.01453914
0.00014410786
0.014796069
-0.00063718088
-0.00011307303
8.5862676e-05
8.9882327e-05
8.2119368e-05
5.0080767e-05
-0.0036025277
-3.0130847e-05
2.6917083e-05
0.003629783
-7.4128488e-05
-0.0031064665
-9.3868237e-06
6.1369685e-06
0.0031316394
-2.1926237e-05
4.6031689e-06
-0.0044368677
3.8617694e-06
-8.85876e-06
0.0044542869
-1.7028332e-05
2.9755351e-05
1.0292601e-05
-0.014845956
-6.6637003e-05
0.014946287
-0.00021733399
3.4695538e-05
2.4742195e-05
3.2504959e-05
8.3116491e-06
1.5539213e-05
2.7775651e-05
4.1708515e-05
5.6470563e-05
-0.014937474
-3.6389192e-05
0.015011142
-0.00027017014
4.5406096e-05
4.1396134e-05
4.7885329e-05
0.00020121774
-0.014797372
6.8141991e-06
2.5258763e-05
0.01485266
-0.00028860556
4.0765356e-05
-0.014972408
6.5299599e-05
0.015066259
-0.00026054077
-5.0795499e-05
3.6704176e-05
4.0450225e-05
3.4239479e-05
2.6024863e-05
-0.0036988712
-1.0365761e-05
1.07923e-05
0.0037097343
-3.7318317e-05
-0.0031885781
-4.1087095e-06
3.4942042e-06
0.0032011798
-1.1988331e-05
-2.5087545e-07
-0.0044824911
-4.3418211e-07
-4.6200171e-07
0.0044846233
-9.8696556e-07
-3.4717364e-07
-5.0612804e-06
-0.014985817
-8.7558582e-06
0.014974871
1.5806323e-05
2.3278357e-06
-2.7235145e-06
2.5115309e-06
-4.924777e-06
-5.2094937e-07
1.2620888e-05
-3.8843488e-06
1.3744714e-05
-0.015002669
-1.7176101e-05
0.014925936
8.3082885e-05
-2.0417583e-06
-4.8078792e-07
3.4734222e-06
-2.9938754e-06
-0.014820268
1.2565524e-05
-4.3620676e-06
0.014715939
9.9103971e-05
5.7720078e-07
-0.015086488
4.0384713e-06
0.015046132
3.5933179e-05
-6.8310725e-07
-1.8578543e-06
3.384241e-06
-1.049147e-06
5.321745e-06
-0.0037339696
5.0781713e-06
-2.2637478e-06
0.0037318932
-6.0611737e-06
-0.0032218036
1.4519763e-07
1.2192792e-06
0.0032236271
-3.1876892e-06
-3.2788678e-06
-0.0044764197
-2.7177713e-06
4.5069418e-06
0.0044692746
8.6339353e-06
-1.7417671e-05
-1.2396681e-05
-0.014923346
2.4812599e-05
0.014841182
0.00015417368
-1.6844035e-05
-1.7467326e-05
-1.4529378e-05
-1.0530913e-05
-1.079115e-05
3.1487824e-06
-3.0388651e-05
-1.1672132e-05
-0.014794998
-7.8176848e-06
0.014626144
0.00029709796
-3.07156e-05
-2.4573309e-05
-2.308315e-05
-0.00012654026
-0.014558093
1.9503661e-05
-2.6822057e-05
0.014365306
0.00032663894
-2.3126119e-05
-0.014957101
-3.5829847e-05
0.014830015
0.00021294961
3.5335235e-05
-2.3691014e-05
-1.8030603e-05
-2.0526107e-05
-7.4786675e-06
-0.0037255708
1.2749376e-05
-9.2714116e-06
0.0037161985
1.3372682e-05
-0.0032180429
2.4237858e-06
-2.2201924e-07
0.00321327
2.571942e-06
-4.5086316e-06
-0.0044420508
-3.3349435e-06
6.3332538e-06
0.0044309674
1.259349e-05
-2.4231815e-05
-1.3660342e-05
-0.014735901
3.7779466e-05
0.014613087
0.00022277609
-2.5478796e-05
-2.3000271e-05
-2.1916801e-05
-1.0958962e-05
-1.6466767e-05
-2.0311301e-06
-4.1868023e-05
-2.0009385e-05
-0.014434272
-6.0750441e-06
0.01423231
0.00038378485
-4.3935758e-05
-3.4884336e-05
-3.505377e-05
-0.00017873151
-0.014153736
2.6565709e-05
-4.2337201e-05
0.013937322
0.00041091431
-3.4168742e-05
-0.014676384
-5.7486511e-05
0.014506223
0.00029538728
5.5892868e-05
-3.306994e-05
-2.7767618e-05
-2.8627294e-05
-1.3272455e-05
-0.0036940538
1.4739909e-05
-1.122631e-05
0.0036813912
2.2421852e-05
-0.0031938123
3.0673715e-06
-9.2645181e-07
0.0031861572
5.5151299e-06
-4.5998765e-06
-0.0043975321
-3.0447371e-06
6.2354851e-06
0.0043858246
1.3116772e-05
-2.5526114e-05
-1.1887669e-05
-0.014478488
3.7725744e-05
0.014337167
0.00024855017
-2.8106193e-05
-2.3821574e-05
-2.3953556e-05
-8.9313309e-06
-1.8816415e-05
-3.9131219e-06
-4.5186148e-05
-1.9254278e-05
-0.014029968
-7.8695886e-06
0.013833747
0.00039231503
-4.8065055e-05
-3.7439168e-05
-3.8281339e-05
-0.00019673304
-0.013725724
3.2948548e-05
-5.3263907e-05
0.013524932
0.00041784014
-3.7048365e-05
-0.014328656
-6.7716371e-05
0.014150858
0.00031016157
6.7434146e-05
-3.4890894e-05
-3.0077724e-05
-3.0063282e-05
-1.4605496e-05
-0.0036521218
1.4158775e-05
-1.0433726e-05
0.0036379872
2.50155e-05
-0.0031620681
2.8199588e-06
-1.1897934e-06
0.003153916
6.5226649e-06
-4.149419e-06
-0.0043533111
-2.4494009e-06
5.217743e-06
0.0043426168
1.207592e-05
-2.4342842e-05
-9.1923197e-06
-0.01419374
3.2121338e-05
0.014052085
0.00024482707
-2.7753208e-05
-2.2695456e-05
-2.3269555e-05
-6.3405071e-06
-1.8502847e-05
-3.196349e-06
-4.476631e-05
-1.4108791e-05
-0.013648229
-1.2197209e-05
0.013476498
0.00036595779
-4.8192985e-05
-3.6915114e-05
-3.8046795e-05
-0.00019469416
-0.013338337
3.8304878e-05
-5.991581e-05
0.013167711
0.00038693153
-3.6238427e-05
-0.013977894
-7.2609456e-05
0.013813238
0.00029058787
7.3659589e-05
-3.36458e-05
-2.8826661e-05
-2.8269235e-05
-1.3850759e-05
-0.0036051721
1.3034519e-05
-8.9220154e-06
0.0035903021
2.4608781e-05
-0.0031304646
2.3028353e-06
-1.2264398e-06
0.0031230248
6.3634739e-06
-3.5615559e-06
-0.0043136774
-1.9433025e-06
4.0236085e-06
0.0043042872
1.0871983e-05
-2.2633301e-05
-6.8167974e-06
-0.013915367
2.3760853e-05
0.013786383
0.00022546141
-2.6513132e-05
-2.0859853e-05
-2.1464268e-05
-4.0966357e-06
-1.6895071e-05
-9.577946e-07
-4.3916147e-05
-6.8003626e-06
-0.013320187
-1.724997e-05
0.013180436
0.00032602978
-4.7268345e-05
-3.5153953e-05
-3.5889546e-05
-0.00018114681
-0.013013929
4.2604849e-05
-6.3845532e-05
0.012877357
0.00033896055
-3.4765722e-05
-0.013659972
-7.416006e-05
0.013520361
0.00025653775
7.6197775e-05
-3.1730687e-05
-2.6583692e-05
-2.5882831e-05
-1.2760966e-05
-0.0035555637
1.2496173e-05
-7.9812806e-06
0.0035403132
2.3497019e-05
-0.003102392
1.9301214e-06
-1.2156444e-06
0.0030960096
5.6675193e-06
-3.0540198e-06
-0.0042790907
-1.4792521e-06
2.9477125e-06
0.0042708444
9.8319183e-06
-2.1007277e-05
-4.8408576e-06
-0.013668663
1.1680724e-05
0.013567062
0.00019307876
-2.5596784e-05
-1.9079498e-05
-1.8766279e-05
-1.9040196e-06
-1.4966981e-05
3.0047554e-06
-4.2482654e-05
3.7816727e-06
-0.013058406
-2.4140892e-05
0.012955861
0.00027364217
-4.5650808e-05
-3.1241478e-05
-3.1361951e-05
-0.00016112857
-0.012758066
4.6000566e-05
-6.4163093e-05
0.012656378
0.0002809798
-3.3462939e-05
-0.013396496
-7.0970799e-05
0.013291742
0.00021091638
7.3841284e-05
-3.0311161e-05
-2.2918135e-05
-2.2339275e-05
-1.1727614e-05
-0.0035061089
1.2405253e-05
-7.8216226e-06
0.0034914388
2.1814485e-05
-0.0030785179
1.7447634e-06
-1.1701697e-06
0.0030731015
4.8415297e-06
-2.7361128e-06
-0.0042490544
-9.0426583e-07
1.7016807e-06
0.0042420796
8.9134145e-06
-1.9004121e-05
-2.0825983e-06
-0.013489874
-1.5106223e-05
0.013455092
0.00011798316
-2.488273e-05
-1.5329042e-05
-1.1450512e-05
2.7010502e-06
-1.1621436e-05
1.3577473e-05
-4.0767859e-05
2.80076e-05
-0.012876806
-4.001667e-05
0.012830925
0.00018839502
-4.4216568e-05
-2.2110729e-05
-2.3407849e-05
-0.00014177744
-0.012573543
4.8650612e-05
-5.4164394e-05
0.012513171
0.00020766574
-3.1683427e-05
-0.013212771
-5.2132928e-05
0.013174518
0.00012002312
5.6591131e-05
-2.8403742e-05
-1.3297964e-05
-1.2840284e-05
-9.7101721e-06
-0.0034632942
1.1505747e-05
-7.2338284e-06
0.0034517073
1.702551e-05
-0.0030582669
1.7021812e-06
-1.13975e-06
0.0030537123
3.9920149e-06
-6.4384945e-06
-2.8852375e-06
-0.0042261198
4.047178e-06
0.0042174141
1.3982382e-05
-1.0472999e-05
1.3045619e-05
-7.3824931e-05
-6.4021298e-05
-1.5745201e-05
2.1493433e-06
2.5968413e-05
-0.013486714
0.0034606735
0.0034117551
0.0033654058
0.0032927013
2.3973944e-05
8.7883384e-06
4.631985e-05
-2.510171e-05
8.6105666e-05
-6.7660751e-05
9.5198195e-05
0.003269952
0.0032174462
0.0031034916
0.0031375125
-0.012797752
-4.005392e-05
1.9727766e-05
1.1373633e-06
-0.00014340601
5.0859876e-05
-3.1325043e-05
0.00014586304
0.0031510888
0.0031723253
0.0030730214
0.0030602633
-0.012478688
-6.4924723e-06
4.414086e-06
-7.6890461e-07
-1.5930163e-05
-0.013167747
0.0033309236
0.0033618833
0.0032266621
0.0031848584
-6.9815179e-06
4.5230111e-05
4.3951257e-05
-5.9754185e-06
-0.003459594
-1.6798567e-06
1.6564839e-06
0.0034832775
-1.7684188e-05
4.5780206e-06
-0.0030410151
-5.6425366e-06
0.0030296661
1.2413456e-05
-2.2260576e-05
-2.1296837e-05
1.6165289e-05
0.0030824038
1.6054775e-05
-3.6274977e-05
-2.7407522e-05
0.0028575422
2.1818745e-05
2.9004476e-05
-1.9045045e-05
-9.0358842e-06
0.0027800078
5.9928123e-06
1.0675417e-05
-6.7790748e-06
-2.0268109e-06
1.2145347e-06
0.0027620146
3.3805888e-06
-3.4463246e-06
6.4855463e-09
-3.5124661e-07
0.0027587171
1.6925202e-06
-8.797635e-06
2.0332538e-06
-2.7703917e-06
0.002763759
4.4759016e-06
-2.3918047e-05
9.0384003e-06
-1.217357e-05
0.0027902849
1.4136792e-05
-3.4949448e-05
2.7386456e-05
-2.9313419e-05
0.0029008409
3.3643737e-05
-2.5643371e-05
2.1659862e-05
-8.3341186e-07
0.0031928037
2.4554369e-05
-0.0028937998
-1.231486e-06
-1.5451123e-06
6.7910838e-06
6.770102e-06
0.0028830173
-0.00012018985
-0.011355163
-9.4225973e-05
9.7620713e-05
0.011340117
0.00013185309
-0.011221054
-0.0001367305
-7.9291771e-05
5.7015262e-05
0.011275693
0.00010438249
-0.011116345
-8.1958626e-05
-3.644975e-05
1.7597728e-05
0.011157973
5.9197981e-05
-0.011089403
-6.0701731e-05
9.8441683e-08
-1.7789558e-05
0.011121988
4.582418e-05
-0.011159276
-0.0001113842
3.6639318e-05
-5.7174612e-05
0.011210483
8.0728005e-05
-0.0001481516
-0.011289453
7.9396496e-05
-9.7524044e-05
0.011332037
0.00012371155
-0.011517569
-3.0805952e-05
0.011413686
0.00011644673
9.3262997e-05
-1.1910025e-05
-2.5355898e-06
-3.3381202e-06
-1.4680079e-05
-4.2242862e-05
-3.1199243e-06
2.8184296e-06
-0.0032353152
4.3118797e-07
1.8882832e-06
-5.7892354e-08
1.7648472e-06
0.0032312913
1.4678714e-06
1.4845315e-06
-0.0028753788
-1.5039913e-06
0.0028754129
-1.4804706e-06
-2.0593468e-06
-4.7152687e-06
-0.011296741
1.3986859e-05
0.011270087
1.945647e-05
-1.6574003e-05
-0.01130395
-1.8113272e-05
1.6024901e-05
0.011297055
2.5573716e-05
-4.4014409e-06
-0.01118542
-1.1000312e-05
6.0213196e-06
0.011199067
-4.2501814e-06
5.32389e-06
-0.011144277
1.8482836e-07
-6.3835448e-06
0.011158821
-1.3651396e-05
-1.3915891e-05
-0.011244081
1.1358061e-05
-1.6363401e-05
0.01125196
1.1060877e-05
-1.1393928e-05
-0.011329941
1.8444393e-05
-1.4348807e-05
0.011308624
2.8633772e-05
-1.5362954e-06
-0.011346634
0.011318536
4.820167e-06
4.223123e-06
2.4040632e-06
4.5795628e-06
5.1338327e-06
1.0108679e-06
5.8546437e-06
1.2212634e-05
-1.0590407e-05
7.3995104e-07
-0.0032306909
-1.1972652e-06
5.3308674e-07
0.0032314901
-8.7264698e-07
3.8073248e-06
3.8479083e-06
-0.0028823139
-5.5747333e-06
0.0028857962
-5.5607967e-06
5.2657838e-05
4.1110687e-05
-0.011265066
-4.2921557e-05
0.011277028
-6.2792445e-05
7.876951e-05
-0.011290987
4.0686249e-05
-3.4103477e-05
0.011295359
-8.9703505e-05
0.00010080191
-0.011197009
2.4694616e-05
-1.2954997e-05
0.01119843
-0.00011394452
0.00010659851
-0.011159609
3.0599579e-07
1.2357674e-05
0.011160841
-0.00012047438
9.0958304e-05
-0.011247916
-2.4120918e-05
3.3581422e-05
0.011250442
-0.00010292313
6.6625038e-05
-0.011302486
-4.0193e-05
4.2432953e-05
0.011310127
-7.6483653e-05
9.5625266e-06
-0.011318245
0.011333531
-4.9640544e-05
-4.1453239e-05
9.3718695e-06
1.0082689e-05
1.0962656e-05
7.4191936e-06
1.1156524e-05
1.7342565e-05
-7.6563149e-08
1.4802046e-06
-0.0032415766
-3.55351e-06
1.2495602e-06
0.0032454192
-3.016467e-06
6.6989763e-06
6.7509511e-06
-0.0029017173
-1.0187318e-05
0.0029086347
-1.0177505e-05
0.00010499494
8.4177621e-05
-0.011303596
-9.4267919e-05
0.011345586
-0.00013687542
0.00016847861
-0.011310244
9.4146189e-05
-8.2553834e-05
0.011336734
-0.00020653627
0.00021517037
-0.011205331
6.1453657e-05
-3.2926841e-05
0.011219525
-0.00025786981
0.00022594095
-0.011166049
4.4668388e-07
3.2060716e-05
0.01117736
-0.00026973636
0.00019544425
-0.011260697
-6.0639603e-05
8.1836813e-05
0.011280225
-0.00023614553
0.00013881336
-0.011330625
-9.3504664e-05
9.3660429e-05
0.011364904
-0.0001732231
1.8945626e-05
-0.011367512
0.011414895
-0.00010080977
-8.4410043e-05
1.697127e-05
1.7999967e-05
1.8487595e-05
1.4296589e-05
1.7962569e-05
2.4632456e-05
8.553824e-06
2.4563141e-06
-0.0032648212
-6.441338e-06
2.1915516e-06
0.0032722518
-5.6353331e-06
1.0892388e-05
1.0949247e-05
-0.0029359748
-1.6755665e-05
0.0029476443
-1.6752895e-05
0.00017605149
0.00014190121
-0.011404439
-0.00016208435
0.011483918
-0.00023532215
0.00029031789
-0.011377076
0.00016474531
-0.00014675393
0.011435038
-0.00036624078
0.00037647333
-0.011243625
0.00011048964
-5.9609088e-05
0.011281552
-0.00046525526
0.00039655457
-0.011197427
6.3486557e-07
5.838836e-05
0.011230241
-0.00048836452
0.00033985819
-0.011311434
-0.00010937249
0.00014580591
0.011358257
-0.00042308576
0.00023610492
-0.011414784
-0.00016393835
0.000161372
0.011484077
-0.0003027981
3.0955496e-05
-0.011483134
0.01156968
-0.00016953207
-0.00014206514
2.7655408e-05
3.000699e-05
2.9453457e-05
2.3940079e-05
2.7880196e-05
3.5715623e-05
1.9460357e-05
3.8831818e-06
-0.0033044623
-1.0624927e-05
3.5839666e-06
0.0033170444
-9.4233245e-06
1.6808218e-05
1.686142e-05
-0.0029913009
-2.6013757e-05
0.0030096749
-2.6028489e-05
0.00027608117
0.00022285348
-0.011587991
-0.00025811792
0.01172268
-0.00037546612
0.00046622953
-0.011516033
0.00026616244
-0.00024041469
0.011627553
-0.00060345767
0.00061611022
-0.011339257
0.00018304516
-9.9437972e-05
0.01142541
-0.00078583264
0.00065193889
-0.011281748
9.2113708e-07
9.7699361e-05
0.011360898
-0.0008296688
0.00055166639
-0.011426398
-0.00018153094
0.00023921877
0.011524093
-0.00070701002
0.0003745062
-0.01157746
-0.00026522847
0.00025736511
0.011701759
-0.00049089903
4.7535617e-05
-0.011684249
0.011825762
-0.0002660659
-0.00022302346
4.2678033e-05
4.719446e-05
4.4817931e-05
3.7485972e-05
4.1777401e-05
5.16358e-05
3.4469564e-05
5.8944061e-06
-0.003367753
-1.6528997e-05
5.5651609e-06
0.0033876069
-1.4784525e-05
2.4351281e-05
2.4386854e-05
-0.0030756035
-3.7873071e-05
0.0031026623
-3.792455e-05
0.00040591844
0.00032772706
-0.011893743
-0.00038539722
0.012108146
-0.000562619
0.00070519942
-0.011779284
0.00040408584
-0.00037112527
0.011983308
-0.00094214365
0.00095519222
-0.011552573
0.0002865261
-0.00015704119
0.011736903
-0.0012689652
0.0010169868
-0.011480766
1.4106701e-06
0.00015447836
0.011658394
-0.0013504589
0.00084617601
-0.011662613
-0.00028450073
0.00036973086
0.011856473
-0.0011252206
0.00055804346
-0.011864604
-0.00040316406
0.00038476163
0.012075394
-0.00075038945
6.8935913e-05
-0.012004969
0.012220421
-0.00039144059
-0.00032806009
6.1907272e-05
6.9220762e-05
6.4067556e-05
5.4799186e-05
5.9172487e-05
7.2131882e-05
5.3832449e-05
8.4523883e-06
-0.0034633836
-2.4062464e-05
8.1119129e-06
0.0034925538
-2.1672742e-05
3.2274689e-05
3.226695e-05
-0.0031952887
-5.0428316e-05
0.003231719
-5.0545977e-05
0.00054584496
0.00044021104
-0.012370872
-0.00052653842
0.012684968
-0.00077360664
0.00098094704
-0.012252079
0.00056219627
-0.00052518685
0.01259892
-0.0013647928
0.0013693298
-0.012001242
0.00041102267
-0.00022764914
0.012397504
-0.0019489639
0.0014698521
-0.011921865
2.154207e-06
0.0002239807
0.012333212
-0.0021073304
0.0011972579
-0.012122118
-0.00040851284
0.00052380807
0.012490714
-0.0016811421
0.00076259619
-0.012342796
-0.0005616337
0.00052636361
0.012673062
-0.0010575741
9.2120507e-05
-0.012481072
0.012780679
-0.00052668464
-0.00044098902
8.2191337e-05
9.2224568e-05
8.3445688e-05
7.2995705e-05
7.6631876e-05
9.369551e-05
7.4781543e-05
1.113106e-05
-0.0035979136
-3.1979183e-05
1.0818748e-05
0.0036369465
-2.9005669e-05
3.7562198e-05
3.7481024e-05
-0.0033488082
-5.8926482e-05
0.003391827
-5.9141754e-05
0.00064066725
0.00051473707
-0.013046189
-0.0006241987
0.013443062
-0.0009281002
0.0011932864
-0.013046046
0.00068008473
-0.0006556775
0.013597972
-0.0017696524
0.001743674
-0.012955165
0.00053530922
-0.00030734482
0.01359546
-0.0026119647
0.0018997877
-0.012908725
6.3632257e-06
0.00029776149
0.013538329
-0.0028335476
0.001492873
-0.013002762
-0.00053158211
0.00065584316
0.013624591
-0.0022389936
0.00090903915
-0.013067973
-0.00068133172
0.00062523148
0.013527223
-0.0013122111
0.00010865297
-0.013120279
0.013480966
-0.00061813497
-0.00051637591
9.5532012e-05
0.00010677209
9.437238e-05
8.4846368e-05
8.6398457e-05
0.00010763571
8.959621e-05
1.2908944e-05
-0.0037687307
-3.7263988e-05
1.2686817e-05
0.0038144609
-3.4067819e-05
3.616558e-05
3.5984219e-05
-0.0035182978
-5.681126e-05
0.0035600999
-5.7145036e-05
0.0006092966
0.00048614347
-0.013855509
-0.00059641874
0.014254868
-0.00089842064
0.0011631393
-0.014190981
0.00067103278
-0.00066298012
0.014704036
-0.0016842912
0.0016902225
-0.014154287
0.00053694211
-0.00031319264
0.014489127
-0.0022488491
0.0018283625
-0.014052007
3.4466786e-05
0.00025374253
0.014329441
-0.0023940411
0.0014685817
-0.01423067
-0.00050009849
0.00064893215
0.014664304
-0.0020510897
0.00087390224
-0.014029653
-0.00067075527
0.00059953148
0.014520487
-0.0012935572
0.00010619664
-0.013849219
0.014192822
-0.00058693013
-0.00048930937
9.0869861e-05
0.00010046048
8.6281942e-05
8.0381728e-05
7.893555e-05
0.00010245926
8.70102e-05
1.2430001e-05
-0.0039555974
-3.5867378e-05
1.2361585e-05
0.0039998204
-3.3154322e-05
2.6559193e-05
2.6272435e-05
-0.0036686835
-4.149732e-05
0.003699287
-4.1943101e-05
0.00042809221
0.00034006919
-0.014606545
-0.00042236464
0.014880616
-0.00061990783
0.00077367689
-0.01502411
0.00046458943
-0.00042611029
0.015106375
-0.00089445787
0.00099552244
-0.01454265
0.0003305553
-0.00020825277
0.014340394
-0.00091559789
0.0010457886
-0.01432171
7.3213282e-05
7.4904142e-05
0.014069878
-0.00094210199
0.00093221807
-0.014836642
-0.00022983287
0.00036716004
0.014744961
-0.00097789686
0.00061064545
-0.014917521
-0.00044248124
0.00042070676
0.015158664
-0.00083005716
7.9643795e-05
-0.014494544
0.01473055
-0.00041176117
-0.00034412022
6.430288e-05
7.0539263e-05
5.7704171e-05
5.6254442e-05
5.3110046e-05
7.5705757e-05
6.2571026e-05
9.2077143e-06
-0.0041209567
-2.6260333e-05
9.2938075e-06
0.0041535365
-2.4826474e-05
1.2875136e-05
1.2509966e-05
-0.0037666415
-1.9729733e-05
0.0037812189
-2.0236773e-05
0.00019110769
0.00015333022
-0.015052299
-0.00018492095
0.01511746
-0.00022470585
0.00024784178
-0.014973502
0.00016813798
-0.0001201298
0.014690616
-1.2986761e-05
0.00013358243
-0.013967415
8.5169312e-05
-8.2078581e-05
0.013514962
0.0003157626
0.00011381391
-0.013660824
9.9135237e-05
-0.00010489172
0.013184098
0.00036865069
0.0002278413
-0.0144572
6.8955043e-05
1.3342976e-05
0.014060396
8.6644002e-05
0.0002471236
-0.015222474
-0.00011169328
0.00016725194
0.015124874
-0.00020511158
4.1789711e-05
-0.014899786
0.014998472
-0.00018440417
-0.00015433747
2.8293377e-05
3.2189933e-05
2.2825763e-05
2.3803907e-05