/*--------------------------------*- C++ -*----------------------------------*\
  =========                 |
  \\      /  F ield         | OpenFOAM: The Open Source CFD Toolbox
   \\    /   O peration     | Website:  https://openfoam.org
    \\  /    A nd           | Version:  8
     \\/     M anipulation  |
\*---------------------------------------------------------------------------*/
FoamFile
{
    version     2.0;
    format      ascii;
    class       volVectorField;
    location    "226";
    object      U;
}
// * * * * * * * * * * * * * * * * * * * * * * * * * * * * * * * * * * * * * //

dimensions      [0 1 -1 0 0 0 0];

internalField   nonuniform List<vector> 
72028
(
(0.00081558274 1.0011332 0.0025602346)
(-2.52608e-05 0.99998628 -2.7908728e-05)
(2.0221026e-05 1.0024369 3.8065166e-05)
(-3.3312597e-05 1.0007424 -0.00019029857)
(-3.1291916e-05 1.0041744 -0.00012943493)
(-2.0045754e-05 1.003065 -0.00041066161)
(-9.8032725e-05 1.0083482 -0.00025927161)
(-1.3296538e-05 1.0075676 -0.00073916367)
(-0.00020031324 1.0159682 -0.00044409281)
(-3.3013366e-06 1.0153677 -0.0012496151)
(-0.00035824837 1.0287499 -0.00071858664)
(1.3035269e-05 1.0282458 -0.0020287125)
(-0.00059751841 1.0491411 -0.0011074669)
(3.9203556e-05 1.0486827 -0.0031560547)
(-0.00093836924 1.080002 -0.0016041515)
(7.3442816e-05 1.07957 -0.0046336682)
(-0.0013668043 1.1234649 -0.0021225517)
(0.00010383499 1.1230957 -0.0062465462)
(-0.0017887257 1.178492 -0.0024502118)
(0.00010176179 1.1782955 -0.0073923379)
(-0.0020216567 1.2378507 -0.0023041757)
(3.6577452e-05 1.237933 -0.0071727219)
(-0.0019288668 1.2885216 -0.0016167402)
(-8.0009056e-05 1.2887959 -0.0052531238)
(-0.0015672687 1.3196843 -0.00072926942)
(-0.00018102125 1.3198815 -0.0025542549)
(-0.0011180142 1.3303119 -2.5427506e-05)
(-0.00022778471 1.3303292 -0.00030213444)
(-0.00071242861 1.3265884 0.00038948441)
(-0.00022961175 1.3264537 0.0010088078)
(-0.00042855431 1.3154329 0.00057254101)
(-0.00021545699 1.3152477 0.0015075385)
(-0.00020247548 1.3019945 0.00059768144)
(-0.0002117202 1.3018538 0.001629319)
(-1.9635949e-05 1.2890708 0.00053703715)
(-0.00020634886 1.2888518 0.0015559683)
(7.7728115e-05 1.2776737 0.00046225777)
(-0.00020459953 1.2772422 0.0013493246)
(0.00010167086 1.2678059 0.00039035375)
(-0.00021596432 1.2669107 0.0011641915)
(1.9467139e-05 1.2587613 0.00037516353)
(-0.00028114407 1.2572571 0.0011066437)
(-0.00013208431 1.2494322 0.00043051653)
(-0.00039800786 1.2471483 0.0012417682)
(-0.00014594353 1.0000919 0.0006792398)
(-4.6334354e-05 1.0000096 -8.2724207e-05)
(-3.4021911e-05 1.0000125 -0.00016235039)
(4.5126659e-06 1.0000125 -0.00018646915)
(4.0512491e-05 1.0000114 -0.00015693297)
(3.135817e-05 1.0000159 -8.9363833e-05)
(-0.00026918324 0.99987561 -0.0001357864)
(-0.00018336087 1.0012209 -0.0002337209)
(-0.00066005055 1.0009298 -0.0016312597)
(-0.00038664636 1.0007987 -0.0023118534)
(0.00012488354 1.0007613 -0.0024157079)
(0.0005571764 1.000847 -0.002030364)
(0.00048754536 1.0007684 -0.00093792885)
(0.00012967164 1.0007245 -0.00024230158)
(-0.00044919056 1.0035571 -0.00062699655)
(-0.0013975917 1.0032136 -0.0034759787)
(-0.00080388464 1.0028064 -0.0048847119)
(0.00026271089 1.0026951 -0.005079903)
(0.0011648231 1.0029817 -0.0042881928)
(0.0011180125 1.0029987 -0.0019878013)
(0.00024552352 1.003318 -0.00039774957)
(-0.00084178749 1.0080989 -0.0011913016)
(-0.0024954018 1.007579 -0.0062181145)
(-0.0014331856 1.0066726 -0.0087527747)
(0.0004703354 1.0064252 -0.0091090281)
(0.0020888195 1.0070768 -0.0076716786)
(0.0019900355 1.0073459 -0.0035503025)
(0.00046112845 1.0080056 -0.00065757297)
(-0.0014451896 1.016003 -0.0020373585)
(-0.004204333 1.0151728 -0.01047165)
(-0.0024202226 1.0134853 -0.014798381)
(0.00080111964 1.0130194 -0.015426601)
(0.0035393378 1.0142498 -0.012943279)
(0.0033217439 1.0149037 -0.0059739039)
(0.00080377495 1.0160146 -0.001075564)
(-0.002358767 1.029059 -0.0033041938)
(-0.00682087 1.027862 -0.016953895)
(-0.0039485269 1.0250813 -0.024110025)
(0.0013195134 1.0243058 -0.02519467)
(0.0057748799 1.0263544 -0.021024427)
(0.005327916 1.0274527 -0.0096614312)
(0.0013283881 1.0291629 -0.0017121611)
(-0.0036674568 1.0497182 -0.0051114344)
(-0.010611534 1.0483473 -0.026283731)
(-0.0061981489 1.044287 -0.037721105)
(0.0020874086 1.0431441 -0.039552219)
(0.0090345951 1.0461603 -0.032758979)
(0.0081572249 1.0475174 -0.014971136)
(0.0020853947 1.0499065 -0.00261803)
(-0.0053557716 1.0807526 -0.0074478187)
(-0.01556042 1.0799915 -0.03836058)
(-0.0092002115 1.0749935 -0.055732712)
(0.0031112946 1.073576 -0.058711597)
(0.013319359 1.0773106 -0.048149237)
(0.011694492 1.0781298 -0.02188849)
(0.0030648708 1.080993 -0.003777276)
(-0.0071477588 1.1240925 -0.0099655629)
(-0.020859742 1.1257089 -0.051150016)
(-0.012507382 1.1213443 -0.07538032)
(0.0042199834 1.1200952 -0.079892529)
(0.017930282 1.1233644 -0.064753291)
(0.015215988 1.1217634 -0.029391688)
(0.004101021 1.124293 -0.0050058316)
(-0.0083582015 1.1784922 -0.011764033)
(-0.024312363 1.1849839 -0.059327833)
(-0.014702392 1.1842619 -0.088070753)
(0.0049022037 1.18412 -0.093829218)
(0.020847454 1.1845386 -0.075564269)
(0.017104471 1.177835 -0.034741135)
(0.0047833095 1.1784914 -0.0058545978)
(-0.0080699839 1.2368718 -0.011559712)
(-0.022866644 1.2491855 -0.055270709)
(-0.013999451 1.2562901 -0.081289895)
(0.004613104 1.2590119 -0.087359257)
(0.019484318 1.2525117 -0.07010366)
(0.01532821 1.2391106 -0.033983909)
(0.0045612345 1.2365346 -0.0057157697)
(-0.0059814851 1.2869187 -0.0087842494)
(-0.016113918 1.3025671 -0.037690768)
(-0.010379635 1.3186224 -0.056069715)
(0.0031526698 1.3238964 -0.061753014)
(0.013830862 1.3104614 -0.04797088)
(0.0095423952 1.2914242 -0.025428137)
(0.0032450618 1.2863194 -0.004363433)
(-0.0030557705 1.3182432 -0.004636223)
(-0.0075401369 1.333188 -0.016343346)
(-0.0055161676 1.3502711 -0.024817398)
(0.00098004451 1.3539186 -0.02863795)
(0.0062743024 1.3426887 -0.021239181)
(0.0024767145 1.3230129 -0.01309864)
(0.0014337029 1.3176483 -0.002418073)
(-0.00058256996 1.3294611 -0.00095463805)
(-0.00071583293 1.3407098 -4.3825624e-05)
(-0.0020340702 1.3489396 0.00074286902)
(-0.0010376063 1.3480927 -0.00040463373)
(0.00026210334 1.3467345 -0.00041477184)
(-0.0027384303 1.3332768 -0.0026367534)
(-3.9961095e-05 1.3290714 -0.0007452336)
(0.00092641325 1.3262107 0.0014067237)
(0.0031381861 1.3318007 0.0092829879)
(8.9518031e-05 1.3257836 0.016963802)
(-0.0026583699 1.3196961 0.017858145)
(-0.0038020849 1.3310769 0.012574727)
(-0.0050067663 1.3289863 0.0038273048)
(-0.00085240044 1.3260732 0.00035247043)
(0.00156527 1.3153708 0.0025142939)
(0.0046601288 1.3130213 0.013942557)
(0.0007809072 1.2913275 0.024511608)
(-0.0038851107 1.2812017 0.026012848)
(-0.0061546735 1.3037434 0.019206253)
(-0.0050711958 1.3171391 0.0067564487)
(-0.0011053083 1.3154155 0.00096903778)
(0.0016941271 1.3020286 0.0028907066)
(0.0048073091 1.2888667 0.015890486)
(0.00077842903 1.2547838 0.026575252)
(-0.0048596414 1.2425245 0.029237158)
(-0.0073338574 1.271935 0.021012393)
(-0.0042411962 1.301863 0.0074097541)
(-0.0010375499 1.3021725 0.001265022)
(0.0015486468 1.2890057 0.0028105326)
(0.0042738428 1.262833 0.016030574)
(0.00040174036 1.2209474 0.026432384)
(-0.0054781397 1.2081019 0.029289032)
(-0.0079916833 1.2406266 0.020529354)
(-0.0034568192 1.2848246 0.0071067428)
(-0.00086156896 1.2892392 0.0013381759)
(0.0013193305 1.2773283 0.0025273631)
(0.0035142714 1.23742 0.015498709)
(-7.0898054e-05 1.1917525 0.025519095)
(-0.005935717 1.1791225 0.027673116)
(-0.0083928765 1.2122358 0.019456271)
(-0.0031973003 1.2666537 0.0067298581)
(-0.00072817482 1.277801 0.0012542063)
(0.0010695152 1.2669052 0.0022949086)
(0.0027512405 1.2139085 0.014893288)
(-0.00057518318 1.1673651 0.024017475)
(-0.0062750227 1.1553287 0.025525417)
(-0.0086765829 1.1876315 0.018413052)
(-0.0034117518 1.2480359 0.0065583859)
(-0.00065995647 1.2679396 0.0010821626)
(0.000898152 1.2569962 0.0022892827)
(0.0022377969 1.1928161 0.014800843)
(-0.0010528915 1.1471169 0.02254324)
(-0.0064853436 1.1358438 0.023517813)
(-0.0088480447 1.1665622 0.017367688)
(-0.0039606926 1.2297575 0.0065946848)
(-0.00066927459 1.2590201 0.00095466249)
(0.00082108911 1.2466001 0.0025164782)
(0.001864791 1.1734401 0.015085204)
(-0.0014727761 1.1298494 0.021724673)
(-0.0066237178 1.1198514 0.022211686)
(-0.0091109162 1.1477955 0.016920398)
(-0.0046658453 1.2121349 0.0069536632)
(-0.00083083987 1.2498802 0.0010233567)
(-6.6396611e-05 1.0000011 -6.9172018e-05)
(-0.00012126306 1.0000154 -0.00015762814)
(-0.00012807963 1.0000181 -0.00025694337)
(-7.5576362e-05 1.0000173 -0.00032438165)
(1.1700005e-05 1.0000139 -0.0003440491)
(9.3297543e-05 1.0000101 -0.00031047241)
(0.00013135163 1.0000071 -0.00023249333)
(0.00010636958 1.0000063 -0.00012821608)
(9.8130491e-05 0.99997632 -6.145786e-05)
(-0.00052916555 1.000693 -0.00052609037)
(-0.0015872118 1.0007499 -0.0021118746)
(-0.0015689951 1.0004222 -0.0032635394)
(-0.00083862241 1.0001649 -0.0040306534)
(0.00027666711 1.000103 -0.0041971378)
(0.0012598171 1.0002741 -0.0037168268)
(0.0016590913 1.0005888 -0.0027253523)
(0.001312169 1.0008848 -0.0015140438)
(0.0002617727 1.0006769 -0.00024521898)
(-0.0011689483 1.0030069 -0.0011630348)
(-0.0032997937 1.0026693 -0.0044060666)
(-0.0032885831 1.001538 -0.0068328445)
(-0.0017651647 1.0006322 -0.0084866108)
(0.0005877141 1.0004136 -0.0088414778)
(0.0026487988 1.0010197 -0.0078055394)
(0.0034680679 1.0021115 -0.0056913239)
(0.0027799488 1.0031206 -0.003204653)
(0.00059500383 1.0030549 -0.00053966815)
(-0.0021061659 1.0075192 -0.0020974907)
(-0.0058827503 1.00637 -0.0078751433)
(-0.0059238602 1.0037841 -0.012302687)
(-0.0031952327 1.0016788 -0.015373969)
(0.001072729 1.0011693 -0.016035045)
(0.004792916 1.0025843 -0.014100437)
(0.006234098 1.0050931 -0.010205333)
(0.0049733552 1.0074101 -0.0057211977)
(0.0010753326 1.0076763 -0.00097078739)
(-0.0035447676 1.0153495 -0.0035340569)
(-0.0099286826 1.0129313 -0.013307049)
(-0.010128939 1.0080156 -0.021029776)
(-0.0055104021 1.0039277 -0.026526072)
(0.0018655598 1.0029298 -0.027724611)
(0.0082534577 1.0056953 -0.024227718)
(0.010616216 1.0105127 -0.017336627)
(0.0083776616 1.0149022 -0.0096146527)
(0.0018082187 1.0156769 -0.0016317719)
(-0.0057164948 1.0282866 -0.0057056676)
(-0.016164168 1.0242051 -0.021673019)
(-0.016790083 1.0159096 -0.034844119)
(-0.009260589 1.0087912 -0.044571612)
(0.0031617157 1.0070259 -0.04674123)
(0.013816788 1.0118918 -0.040459552)
(0.017472053 1.0201559 -0.028466707)
(0.013562401 1.027472 -0.015530402)
(0.0029150671 1.028848 -0.0026272565)
(-0.008812933 1.0488042 -0.0088057337)
(-0.025272912 1.0430888 -0.033888658)
(-0.026916588 1.0305918 -0.055828801)
(-0.015150889 1.0193668 -0.072885349)
(0.0052157269 1.0165114 -0.076815048)
(0.022444548 1.0243056 -0.065573825)
(0.027700671 1.0370614 -0.045034431)
(0.021013459 1.0478475 -0.024012726)
(0.0044921852 1.0496319 -0.004043022)
(-0.012788876 1.0797411 -0.012791862)
(-0.037308234 1.0736294 -0.050037131)
(-0.041076244 1.0575242 -0.085196676)
(-0.023782715 1.0421328 -0.11442876)
(0.0082509823 1.0380492 -0.1214546)
(0.034849018 1.0489845 -0.10168146)
(0.041623772 1.0659874 -0.0675543)
(0.030634807 1.0794417 -0.034938291)
(0.0065117119 1.0807615 -0.0058555253)
(-0.017006889 1.1231597 -0.017030602)
(-0.050439527 1.1201788 -0.067719235)
(-0.057685615 1.1047768 -0.12002758)
(-0.034446496 1.0894969 -0.16632953)
(0.012081065 1.0855708 -0.17796928)
(0.049783686 1.0960483 -0.14586411)
(0.057464531 1.1130619 -0.093236034)
(0.040799845 1.1252232 -0.046444373)
(0.0086390673 1.1240827 -0.007768754)
(-0.019903622 1.1779753 -0.019960966)
(-0.059279527 1.1838728 -0.079858025)
(-0.070830663 1.1825806 -0.14717455)
(-0.046496462 1.1859772 -0.21844711)
(0.016277517 1.1852881 -0.23870087)
(0.06428765 1.1844467 -0.18549596)
(0.068697125 1.1822533 -0.11162183)
(0.047369344 1.1847317 -0.05382957)
(0.010063453 1.1782566 -0.0090610424)
(-0.019361231 1.2371209 -0.019462328)
(-0.055819744 1.2566789 -0.075507428)
(-0.07201648 1.2867748 -0.1470277)
(-0.046339006 1.2854869 -0.21025661)
(0.011873964 1.2774301 -0.22541312)
(0.0629865 1.2915892 -0.18520263)
(0.067163516 1.2702415 -0.10828309)
(0.044615982 1.2493824 -0.050578349)
(0.0096880864 1.2362387 -0.0087672509)
(-0.014571776 1.2879093 -0.014717166)
(-0.039613626 1.3200137 -0.053569807)
(-0.048440492 1.3446047 -0.094574223)
(-0.028832314 1.2957224 -0.11192533)
(-9.0494125e-05 1.277122 -0.11564535)
(0.032442223 1.3230653 -0.10973587)
(0.047742613 1.3418266 -0.077103064)
(0.031167605 1.3030426 -0.035072402)
(0.0070741824 1.2859912 -0.0065417489)
(-0.0076008328 1.3194573 -0.0077753111)
(-0.018794121 1.3518437 -0.024756794)
(-0.015871554 1.3220591 -0.023465438)
(-0.0082906952 1.2301331 8.3606886e-05)
(-0.011216528 1.2045477 0.0047212335)
(-0.0033630499 1.2728488 -0.016700458)
(0.016925824 1.3541561 -0.02953966)
(0.014043822 1.3337166 -0.015431755)
(0.00330782 1.3173626 -0.0033667923)
(-0.0015220251 1.3304509 -0.0016921292)
(-0.0011908878 1.3464871 0.00090787082)
(0.0083584199 1.2587442 0.030627752)
(0.0036278424 1.1480809 0.065836785)
(-0.017043201 1.1202383 0.071596856)
(-0.026002014 1.1965282 0.044938326)
(-0.009033081 1.3162548 0.008447811)
(0.00063347929 1.3413779 -0.00033560531)
(6.7895881e-05 1.3288655 -0.00062620745)
(0.0023436581 1.3268151 0.002222257)
(0.010196983 1.3148995 0.018075406)
(0.019477325 1.1934786 0.057385367)
(0.0073794185 1.0822492 0.089150586)
(-0.018689773 1.0559047 0.093650847)
(-0.034686901 1.1294207 0.069602163)
(-0.024734343 1.2605014 0.031176111)
(-0.00743018 1.33177 0.008552339)
(-0.0018454362 1.3259283 0.0010811484)
(0.0041114667 1.315616 0.004090398)
(0.015440292 1.2723424 0.02675375)
(0.021595782 1.1405421 0.06424227)
(0.0071355301 1.0376982 0.089603502)
(-0.018360509 1.0141791 0.092408347)
(-0.035583111 1.080477 0.072875642)
(-0.031077664 1.2077139 0.040080975)
(-0.011867483 1.310596 0.01290238)
(-0.0025287695 1.3153018 0.0018861101)
(0.0045039955 1.3019571 0.0046046684)
(0.017087341 1.230767 0.030181908)
(0.019697123 1.101445 0.061560764)
(0.0053756853 1.0092552 0.080742759)
(-0.01724257 0.98862703 0.082216274)
(-0.033274454 1.0471788 0.066739776)
(-0.031765098 1.164504 0.040319787)
(-0.01394467 1.2828477 0.014260606)
(-0.0024437426 1.30207 0.0021020369)
(0.0041323396 1.2883773 0.0043950666)
(0.01641236 1.1949571 0.030178714)
(0.016497076 1.0733797 0.055289936)
(0.0033071956 0.9914126 0.069611281)
(-0.015933484 0.97340259 0.070157995)
(-0.029976031 1.0248921 0.057760296)
(-0.029971791 1.1310324 0.036748491)
(-0.014656421 1.2532907 0.01396831)
(-0.0021061687 1.2891003 0.0019762971)
(0.0035363699 1.2752329 0.0040246925)
(0.014667572 1.1656413 0.028534339)
(0.01328285 1.0532111 0.04845762)
(0.0014775097 0.98023077 0.059201292)
(-0.014712462 0.9644258 0.059062608)
(-0.02670933 1.0098708 0.048961833)
(-0.027442662 1.1055611 0.032172534)
(-0.01471392 1.2252573 0.012996643)
(-0.0017587023 1.2775486 0.0016814393)
(0.0030542897 1.2620372 0.0038618224)
(0.012700068 1.1419561 0.026413213)
(0.010527883 1.0384324 0.042362347)
(3.9586151e-05 0.97308702 0.050462696)
(-0.013647626 0.95910321 0.049831337)
(-0.023874825 0.99948337 0.041479183)
(-0.024999495 1.0860886 0.027886042)
(-0.014663593 1.2002307 0.012064928)
(-0.0015458506 1.2674096 0.0013697381)
(0.0028507896 1.2480575 0.0040738492)
(0.011061095 1.1224223 0.024567781)
(0.008362147 1.0268788 0.037487186)
(-0.0010306486 0.96827248 0.043539222)
(-0.012739933 0.95590156 0.042555423)
(-0.021580806 0.99179971 0.035565184)
(-0.023013902 1.0704309 0.024416493)
(-0.014606774 1.1783897 0.011278747)
(-0.001560774 1.2578574 0.0011970733)
(0.0030590762 1.2333346 0.0047612249)
(0.010072066 1.1050127 0.023560102)
(0.0068195309 1.0172797 0.033939601)
(-0.0017858938 0.96506897 0.038320604)
(-0.012001183 0.95420179 0.037065083)
(-0.019849211 0.98589318 0.031179465)
(-0.021698177 1.0567837 0.022044741)
(-0.014887372 1.1585994 0.010952589)
(-0.0018917407 1.2476859 0.0012557862)
(0.00065758182 1.0000853 -0.00014115207)
(-0.00015792096 1.0000154 -0.00012074838)
(-0.00022951309 1.0000202 -0.00022908773)
(-0.00021605688 1.0000198 -0.00032826245)
(-0.0001221866 1.0000152 -0.00039712375)
(1.921017e-05 1.0000089 -0.00041711603)
(0.00015292473 1.000004 -0.00038281384)
(0.00022706965 1.0000018 -0.00030373785)
(0.0002168074 1.0000021 -0.00020031648)
(0.00012149847 1.0000043 -9.1787266e-05)
(-0.0012202977 1.0006702 0.0011419297)
(-0.00023428705 1.0012069 -0.00017930663)
(-0.0021155673 1.0007501 -0.0015825556)
(-0.0028640657 1.0002378 -0.0028592811)
(-0.0025830294 0.99966253 -0.0040161505)
(-0.0013299042 0.999232 -0.0047830511)
(0.00044270569 0.99913337 -0.004949863)
(0.0020361911 0.99941369 -0.0044677389)
(0.0028398583 0.9999438 -0.0034753569)
(0.0025920396 1.0005113 -0.0022257654)
(0.0014644997 1.0009301 -0.0010063383)
(3.7688538e-05 1.0019341 8.7146871e-05)
(-0.00063223502 1.0035404 -0.00044109728)
(-0.0044129548 1.0026689 -0.0032911373)
(-0.0060053368 1.0009048 -0.0059966723)
(-0.0054701669 0.99885734 -0.0085051013)
(-0.0028351023 0.99729871 -0.010197163)
(0.00094886678 0.99693907 -0.010567082)
(0.0043343207 0.99795903 -0.0094985524)
(0.0059893493 0.99986462 -0.0073259468)
(0.0054200305 1.0018535 -0.0046505914)
(0.0031134879 1.0032411 -0.0021352207)
(0.00016833829 1.0039041 -4.6417348e-05)
(-0.0011993572 1.008082 -0.00083007405)
(-0.0078848955 1.0063687 -0.0058702572)
(-0.010837651 1.0023361 -0.010825312)
(-0.010009141 0.99752848 -0.015560772)
(-0.0052407881 0.99377861 -0.018850625)
(0.001766962 0.99290337 -0.019578488)
(0.0079906202 0.99537727 -0.017482164)
(0.010894263 0.99991088 -0.013312676)
(0.0097440048 1.004516 -0.0083543125)
(0.0055649242 1.0076603 -0.0038182967)
(0.00029719295 1.0082835 -0.00016867777)
(-0.0020472599 1.0159848 -0.0014303464)
(-0.013318891 1.0129279 -0.0099130972)
(-0.018614461 1.0052438 -0.018599367)
(-0.017545794 0.9957606 -0.027275962)
(-0.0093261617 0.98811368 -0.033550283)
(0.0031707013 0.98629662 -0.034966717)
(0.014153064 0.99140246 -0.030912093)
(0.018927419 1.000505 -0.023103589)
(0.016606659 1.0094319 -0.01422861)
(0.0093616957 1.0153493 -0.0064255002)
(0.00048145546 1.0161304 -0.00034117481)
(-0.0033150742 1.0290367 -0.0023418763)
(-0.021685345 1.0241971 -0.01614779)
(-0.031082401 1.0111697 -0.03106742)
(-0.030203836 0.99422774 -0.046945002)
(-0.01642994 0.9798752 -0.059101641)
(0.0056389958 0.97637403 -0.061928585)
(0.024726841 0.98612454 -0.053913133)
(0.03212716 1.0028255 -0.039172233)
(0.027378836 1.0183566 -0.023444781)
(0.015129254 1.0281862 -0.010387952)
(0.00075490804 1.0291837 -0.00059680753)
(-0.0051218609 1.0496872 -0.0036509794)
(-0.033898867 1.0430709 -0.025262166)
(-0.050365873 1.0232906 -0.050359447)
(-0.051151821 0.99547386 -0.079495232)
(-0.028820029 0.97014843 -0.10364398)
(0.010004992 0.9637314 -0.10950056)
(0.042774601 0.98135922 -0.093125479)
(0.053270631 1.0098899 -0.064886039)
(0.043535 1.0343896 -0.037261047)
(0.0233932 1.0488604 -0.016070332)
(0.001138175 1.0498703 -0.00096513526)
(-0.0074556053 1.0807067 -0.005344916)
(-0.050041402 1.0735939 -0.03731792)
(-0.078055018 1.0477235 -0.078078862)
(-0.084266207 1.0068014 -0.13110528)
(-0.049772936 0.9657361 -0.17944496)
(0.017555042 0.95530033 -0.19190062)
(0.072371983 0.98403802 -0.1578402)
(0.085208226 1.0287076 -0.10371383)
(0.065722036 1.0625899 -0.056216347)
(0.03402602 1.0806579 -0.023386905)
(0.0016166184 1.0809391 -0.0014522677)
(-0.0099683149 1.1240261 -0.0071508394)
(-0.067714245 1.1201164 -0.050499348)
(-0.11214476 1.0944778 -0.11224455)
(-0.13506943 1.0521726 -0.20930258)
(-0.09030838 0.99751889 -0.31842109)
(0.031307784 0.97705915 -0.34602325)
(0.12522453 1.0260508 -0.26923239)
(0.12769505 1.0740715 -0.15540188)
(0.091407671 1.1098184 -0.078087813)
(0.045205345 1.1262959 -0.031077693)
(0.0020979348 1.1242833 -0.001996543)
(-0.011760422 1.1784069 -0.0083857639)
(-0.079846915 1.1837783 -0.059437665)
(-0.14291381 1.1813302 -0.14320575)
(-0.18488277 1.1413471 -0.28269114)
(-0.11333498 1.0091931 -0.38565651)
(0.029093323 0.9673407 -0.41249098)
(0.15325931 1.0748764 -0.34539712)
(0.17497288 1.1773252 -0.21278709)
(0.11039296 1.181418 -0.094069172)
(0.052362869 1.1850302 -0.035979435)
(0.0023772094 1.1786067 -0.0024236027)
(-0.011551306 1.2367821 -0.0081289511)
(-0.075457029 1.2565772 -0.056153365)
(-0.14288133 1.2903343 -0.14128521)
(-0.14768133 1.1632004 -0.2165577)
(-0.089405654 0.97477988 -0.26474308)
(0.0058744974 0.92364568 -0.28512325)
(0.1001321 1.0601009 -0.25532189)
(0.15080966 1.2504991 -0.19100953)
(0.10884595 1.2758198 -0.092906999)
(0.049224788 1.2483555 -0.033789341)
(0.002186568 1.2368225 -0.0024975786)
(-0.008774059 1.2868479 -0.0060677944)
(-0.053519446 1.3199807 -0.039966365)
(-0.083927273 1.316663 -0.07746075)
(-0.053318501 1.1032561 -0.058857987)
(-0.031119642 0.89321871 -0.029720522)
(-0.023257446 0.84235981 -0.031324212)
(0.0027149114 0.98512982 -0.060501256)
(0.055558026 1.2224208 -0.084179533)
(0.074780814 1.3458387 -0.065452474)
(0.034220851 1.3007133 -0.023572036)
(0.0014347487 1.2867306 -0.0021411049)
(-0.0046272906 1.3182059 -0.0031561847)
(-0.025081979 1.351889 -0.018506182)
(-0.010577656 1.2597829 0.00030453528)
(0.023918264 0.99778377 0.067042709)
(0.013081467 0.7773146 0.13242037)
(-0.04029343 0.72382919 0.14216229)
(-0.065404393 0.87205349 0.08491168)
(-0.02981371 1.1326187 0.014848557)
(0.022776678 1.3443064 -0.023359086)
(0.015132172 1.3307378 -0.010598949)
(0.00041697273 1.318063 -0.0015841834)
(-0.00095081659 1.3294578 -0.00068428183)
(-0.00026277639 1.3465057 0.00046910745)
(0.034189855 1.1795694 0.04765003)
(0.056049859 0.9138081 0.11824673)
(0.026322557 0.71298362 0.17504558)
(-0.040725198 0.66670483 0.18180609)
(-0.085570212 0.79758326 0.1335181)
(-0.071883321 1.0450584 0.064793354)
(-0.01879689 1.2926245 0.009910023)
(0.00033884159 1.3387418 -0.00038688167)
(-0.00044204394 1.3293895 -0.0010838006)
(0.0013995578 1.3262377 0.00083488807)
(0.015739731 1.3147997 0.013560563)
(0.051306253 1.1118807 0.065909562)
(0.060082166 0.86905826 0.12369617)
(0.025043036 0.6997191 0.16315276)
(-0.036100667 0.66212108 0.16588891)
(-0.081842352 0.7698793 0.13134237)
(-0.082498357 0.98553423 0.078036067)
(-0.042009952 1.2305354 0.027882422)
(-0.0082114688 1.3311449 0.0054237392)
(-0.00094338357 1.326245 -0.00073611092)
(0.0024903359 1.3154119 0.001492469)
(0.023245272 1.2721631 0.0204215)
(0.052646761 1.0637873 0.067584002)
(0.053034861 0.85140465 0.1111002)
(0.019773387 0.71134542 0.13713851)
(-0.030949298 0.68100595 0.13725701)
(-0.070951387 0.7686936 0.1127366)
(-0.078124027 0.95122504 0.073693118)
(-0.049504483 1.1764468 0.033053748)
(-0.012481924 1.313735 0.0077448522)
(-0.0011049075 1.3154643 -0.00045991595)
(0.0028418782 1.3020717 0.0016439149)
(0.025676688 1.2305506 0.023381062)
(0.047313614 1.0317985 0.062165391)
(0.043348558 0.84827848 0.094226194)
(0.014334094 0.73174065 0.11136468)
(-0.026463252 0.7068964 0.11001932)
(-0.05954651 0.779086 0.09201719)
(-0.068728014 0.93333793 0.063362206)
(-0.048826979 1.1344907 0.031748914)
(-0.01437125 1.2905376 0.0082549843)
(-0.0010043822 1.3021608 -0.00024437087)
(0.0027276681 1.289042 0.0015369178)
(0.024884203 1.1947338 0.023708067)
(0.040134094 1.0109901 0.054692043)
(0.034277326 0.8519017 0.078369252)
(0.0097976527 0.75349086 0.089772649)
(-0.022811605 0.73273764 0.08765451)
(-0.049669894 0.7932632 0.073870421)
(-0.058808949 0.92490265 0.05236429)
(-0.044818649 1.1032789 0.027971228)
(-0.01473405 1.2648217 0.007844971)
(-0.00081548843 1.2892202 -0.00010240626)
(0.0024054935 1.2773522 0.0013723909)
(0.022656198 1.1654251 0.022718229)
(0.03326142 0.99736656 0.047426488)
(0.026787896 0.85813181 0.065115887)
(0.0063108197 0.77364457 0.072773755)
(-0.019900768 0.75597387 0.070257542)
(-0.04168915 0.80765713 0.059300313)
(-0.050047909 0.92155045 0.042715436)
(-0.040007574 1.080188 0.0237323)
(-0.014542431 1.2392952 0.007144467)
(-0.0006485639 1.2778294 -2.2970429e-05)
(0.00211297 1.2669089 0.0012459373)
(0.02011075 1.1417519 0.021311926)
(0.027480558 0.98808612 0.04121972)
(0.020943822 0.864872 0.054589126)
(0.0037359432 0.79134523 0.059710785)
(-0.017584403 0.77608072 0.057001602)
(-0.035417188 0.82083942 0.048030151)
(-0.04287963 0.92064634 0.034926039)
(-0.035552023 1.0627971 0.019934468)
(-0.01418169 1.2154475 0.0063441087)
(-0.00051118883 1.2681 2.070237e-05)
(0.0020027214 1.2569619 0.0012930568)
(0.017948824 1.1222306 0.020100983)
(0.022950744 0.98119299 0.036271197)
(0.016501243 0.87146507 0.046393553)
(0.0018683561 0.8068357 0.049713304)
(-0.015727216 0.79348512 0.046920181)
(-0.030525239 0.83269217 0.039419748)
(-0.037217301 0.92087281 0.028881291)
(-0.031964267 1.0489466 0.016933428)
(-0.014180453 1.1939629 0.0058154079)
(-0.00043756396 1.2594579 3.2083369e-05)
(0.002069883 1.2465114 0.0015435208)
(0.016648791 1.1048538 0.019503483)
(0.019609949 0.97589231 0.032552386)
(0.013158093 0.87783007 0.04007637)
(0.00048661591 0.82040983 0.041993206)
(-0.014250878 0.80857582 0.039150723)
(-0.026722279 0.84335143 0.032817101)
(-0.032874732 0.92186668 0.024325277)
(-0.029434707 1.0371055 0.014834282)
(-0.014599885 1.1742111 0.0055963793)
(-0.0005110731 1.2508284 6.1415995e-06)
(-8.3771846e-05 1.0000094 -4.6568295e-05)
(-0.00025726666 1.0000181 -0.00012755266)
(-0.00032868355 1.0000198 -0.00021550879)
(-0.00029770314 1.000015 -0.00029714818)
(-0.00016555092 1.000007 -0.00035369324)
(2.6166319e-05 0.99999837 -0.00037026806)
(0.0002081009 0.99999278 -0.00034199239)
(0.00031571443 0.99999171 -0.00027698761)
(0.00031732497 0.99999482 -0.0001921075)
(0.00022158311 0.9999992 -0.00010490962)
(-8.6610982e-05 0.9999979 -5.2132767e-05)
(-0.001633729 1.0009289 -0.00065507044)
(-0.0032668867 1.0004223 -0.0015630354)
(-0.0040209079 0.99966268 -0.002576753)
(-0.0035065148 0.99883375 -0.0035001124)
(-0.001781332 0.99821853 -0.0041161434)
(0.00059527211 0.99807804 -0.0042507548)
(0.0027468806 0.99847791 -0.0038629369)
(0.0039104086 0.99923741 -0.0030679814)
(0.0037753407 1.0000619 -0.0020750619)
(0.0025052172 1.0007099 -0.0010854957)
(0.00069463602 1.0009292 -0.00036093999)
(-0.0034806341 1.0032123 -0.0013877571)
(-0.0068390185 1.0015379 -0.0032774021)
(-0.0085137847 0.99885762 -0.005458385)
(-0.0075137681 0.99585151 -0.0075017105)
(-0.0038461157 0.99358682 -0.0088911731)
(0.0012914257 0.99306686 -0.009197167)
(0.0059190802 0.99454503 -0.0083171495)
(0.0083377641 0.99732307 -0.0065392927)
(0.0079481231 1.00028 -0.0043683124)
(0.0052349611 1.002519 -0.0022606261)
(0.0016988886 1.0031841 -0.00073501952)
(-0.0062247766 1.0075766 -0.0024800038)
(-0.012311388 1.0037833 -0.0059068628)
(-0.015573123 0.99752866 -0.0099912539)
(-0.014010277 0.99026428 -0.013992078)
(-0.0072667532 0.98463306 -0.016806816)
(0.002457373 0.98332281 -0.017436244)
(0.011138251 0.98703261 -0.015633755)
(0.015415975 0.99385297 -0.012086006)
(0.01441653 1.0008773 -0.0079218174)
(0.0093802355 1.0060222 -0.0040414126)
(0.0031104229 1.0075843 -0.0013109775)
(-0.010480184 1.0151674 -0.0041824646)
(-0.021040491 1.0080122 -0.010105456)
(-0.027291219 0.99575936 -0.017521293)
(-0.025265892 0.98082217 -0.025240969)
(-0.013383104 0.96870082 -0.030967953)
(0.0045659059 0.96581613 -0.032281593)
(0.02036186 0.97392543 -0.028548819)
(0.027435028 0.98830323 -0.021500181)
(0.024941085 1.0023928 -0.013703692)
(0.015896343 1.0122686 -0.0068433501)
(0.005265296 1.0152272 -0.0022141924)
(-0.016964508 1.0278495 -0.00679132)
(-0.034856448 1.0158983 -0.016760076)
(-0.046961004 0.99422037 -0.030173781)
(-0.045406542 0.96580457 -0.045376382)
(-0.024851711 0.94109966 -0.057540327)
(0.0085734698 0.93501171 -0.060440381)
(0.037338679 0.95193468 -0.05230178)
(0.048296392 0.98031753 -0.037837559)
(0.042076316 1.0061546 -0.023123057)
(0.025988966 1.0230872 -0.011190704)
(0.0085266986 1.0278977 -0.0035998198)
(-0.026298434 1.0483202 -0.010573653)
(-0.055844367 1.0305601 -0.026882757)
(-0.079506651 0.99544584 -0.051123548)
(-0.08206825 0.94419292 -0.082044366)
(-0.047153588 0.89473183 -0.10929029)
(0.016482613 0.88205921 -0.11605704)
(0.069532752 0.91697287 -0.097319204)
(0.084540988 0.97109348 -0.066218319)
(0.069177743 1.0152605 -0.038028668)
(0.040847293 1.0414092 -0.017601963)
(0.01319779 1.048108 -0.0056085622)
(-0.038386152 1.0799383 -0.015515473)
(-0.08522557 1.0574464 -0.041050608)
(-0.13110482 1.0067116 -0.084267589)
(-0.15004144 0.92142676 -0.1501083)
(-0.098995214 0.82706458 -0.227623)
(0.035563125 0.79795008 -0.24799126)
(0.13753746 0.87276225 -0.1915069)
(0.14595648 0.96695942 -0.11418388)
(0.10940584 1.036448 -0.060124982)
(0.060717083 1.0714928 -0.026179748)
(0.0192266 1.0788347 -0.0082343434)
(-0.051203747 1.1256179 -0.020813293)
(-0.12011089 1.1046084 -0.057699011)
(-0.20921801 1.0519523 -0.13530427)
(-0.27423623 0.90746784 -0.27180907)
(-0.16677761 0.67512584 -0.37517981)
(0.051827886 0.60848712 -0.40210685)
(0.23499855 0.7858852 -0.33478104)
(0.25852888 1.0008773 -0.20372641)
(0.16123594 1.0827749 -0.088296526)
(0.082799234 1.1182635 -0.035666194)
(0.025638017 1.1224184 -0.011066499)
(-0.059443173 1.1848565 -0.024273368)
(-0.14733268 1.1823129 -0.071056877)
(-0.28521085 1.1409327 -0.18126013)
(-0.31142769 0.83541006 -0.29600562)
(-0.19815574 0.46019326 -0.41532393)
(0.043869697 0.35517668 -0.46000988)
(0.24841493 0.63512498 -0.37493585)
(0.30825006 1.016789 -0.24855134)
(0.21573656 1.182608 -0.11987225)
(0.097829875 1.1836806 -0.041939191)
(0.029939669 1.1780825 -0.013007201)
(-0.055470641 1.2490532 -0.022853535)
(-0.14762231 1.2866121 -0.071645798)
(-0.22647568 1.1625864 -0.1328319)
(-0.22117023 0.76110616 -0.18610786)
(-0.17787342 0.46627025 -0.30002887)
(-0.017334834 0.2985634 -0.37579304)
(0.15157516 0.52783195 -0.26988266)
(0.20722563 0.9797963 -0.1808826)
(0.20009228 1.2734165 -0.11323662)
(0.092400845 1.2614755 -0.039824121)
(0.028647764 1.2385761 -0.012490138)
(-0.037920708 1.3024886 -0.016159007)
(-0.096650326 1.3444235 -0.044573604)
(-0.075347046 1.1026431 -0.028102254)
(-0.012754485 0.67452984 0.034142927)
(-0.027056972 0.4042771 0.048664364)
(-0.060207692 0.25481098 0.058121877)
(-0.047571156 0.48773208 -0.0088492158)
(0.014599089 0.89695237 -0.039603101)
(0.093021979 1.2654644 -0.057651396)