/*--------------------------------*- C++ -*----------------------------------*\
  =========                 |
  \\      /  F ield         | OpenFOAM: The Open Source CFD Toolbox
   \\    /   O peration     | Website:  https://openfoam.org
    \\  /    A nd           | Version:  8
     \\/     M anipulation  |
\*---------------------------------------------------------------------------*/
FoamFile
{
    version     2.0;
    format      ascii;
    class       volScalarField;
    location    "100";
    object      k;
}
// * * * * * * * * * * * * * * * * * * * * * * * * * * * * * * * * * * * * * //

dimensions      [0 2 -2 0 0 0 0];

internalField   nonuniform List<scalar> 
72028
(
0.019677419
0.019687248
0.01701164
0.017007293
0.014895082
0.014890592
0.013240425
0.013237066
0.01191712
0.011914683
0.010845278
0.010844154
0.009976075
0.0099772099
0.0092830548
0.0092887164
0.0087499418
0.0087635916
0.0083508018
0.0083774339
0.0080299034
0.0080686358
0.0077208836
0.0077608916
0.0074008225
0.0074347041
0.0070887501
0.0071293115
0.0068116943
0.0068896879
0.0066075845
0.0068324254
0.0065481947
0.0070645388
0.0067999119
0.0078080251
0.0076730978
0.0093787612
0.0097140203
0.012102678
0.01344699
0.01612165
0.018824306
0.021258163
0.01967993
0.019658049
0.019652937
0.019652071
0.019653477
0.019662211
0.019687839
0.017004165
0.016710738
0.016700433
0.016696898
0.0167038
0.01699628
0.017004723
0.014890874
0.014668384
0.014663693
0.014660935
0.01466462
0.014888066
0.014890444
0.013237427
0.013058284
0.013054808
0.013051942
0.013055046
0.013234767
0.013237474
0.011915328
0.01176782
0.011764067
0.011760608
0.011764482
0.011912179
0.011915775
0.010844907
0.010723114
0.010719078
0.010714812
0.010719798
0.0108412
0.010845569
0.0099776305
0.0098816576
0.0098796856
0.0098744543
0.0098795867
0.0099740445
0.0099784607
0.009287085
0.0092245089
0.0092322701
0.0092272552
0.0092271233
0.0092867908
0.0092877084
0.0087574572
0.0087489693
0.0087858154
0.0087907031
0.0087641073
0.0087687742
0.0087561926
0.0083622153
0.0084313594
0.0084891075
0.0085249427
0.0084314748
0.0083987917
0.008357353
0.0080436775
0.0081936412
0.0096550311
0.0106858
0.0086486582
0.0081114307
0.0080341252
0.0077320912
0.008842428
0.017981936
0.023582391
0.012004123
0.0078351761
0.0077208802
0.0074068478
0.012020956
0.03549118
0.0458812
0.022160506
0.007735167
0.0073956294
0.007087818
0.018782822
0.055095447
0.068663742
0.036532362
0.0081604527
0.0070792751
0.0068492428
0.028439066
0.072780865
0.087903636
0.051773225
0.009793812
0.0067967174
0.0067575365
0.039427251
0.087470495
0.10207376
0.0655161
0.013453597
0.0065650115
0.0069370216
0.050238128
0.098414539
0.11122899
0.077253178
0.019661378
0.0064831934
0.0076313383
0.060040302
0.1053074
0.11629519
0.086243891
0.027493072
0.006670648
0.0091996916
0.068266966
0.10876697
0.11815804
0.092089279
0.035726523
0.0074172352
0.011978733
0.074177863
0.10968748
0.1177196
0.09526001
0.043217683
0.0091594658
0.015999397
0.078002575
0.10892341
0.11578555
0.096503024
0.049350984
0.012286078
0.020960097
0.080784713
0.10757938
0.11317234
0.097087179
0.054261088
0.016898003
0.019673044
0.019651888
0.019650715
0.019650673
0.019650684
0.019650677
0.019650789
0.019653411
0.019680863
0.016999121
0.016694406
0.016684911
0.016681039
0.016680336
0.016682313
0.016688957
0.016707829
0.017001345
0.014887904
0.014660543
0.014653959
0.014649147
0.014647936
0.014650836
0.014657313
0.014667072
0.014887913
0.013234614
0.013052373
0.013046479
0.013041802
0.013040347
0.013043381
0.013049261
0.01305708
0.013234196
0.011912414
0.011761359
0.011753357
0.011747294
0.011745357
0.011749416
0.011756994
0.011766921
0.011912047
0.010842306
0.010715662
0.010706344
0.010699902
0.010697551
0.010702035
0.010710367
0.010723082
0.01084177
0.0099766745
0.0098752156
0.0098732906
0.0098777944
0.0098774192
0.0098737756
0.0098734025
0.0098839994
0.0099746277
0.0092909437
0.0092297084
0.0092664769
0.0093079269
0.0093176733
0.00929818
0.0092450519
0.0092330815
0.0092836783
0.0087692665
0.0087910727
0.0088984866
0.0098926821
0.010776955
0.0091451476
0.0088288958
0.0087676551
0.008752277
0.008385605
0.0085386658
0.0148472
0.064341172
0.085695661
0.035622786
0.0094122895
0.0084649087
0.0083547054
0.0080783138
0.010154504
0.074670508
0.21681082
0.25618752
0.15068457
0.026185769
0.0082805049
0.0080337716
0.007772771
0.022328022
0.16394143
0.31512084
0.35026175
0.25203271
0.076180838
0.0090413451
0.0077219557
0.007462003
0.047266338
0.21513295
0.34432141
0.37312584
0.29185787
0.12783442
0.012966151
0.0073954377
0.0071999933
0.07559076
0.23523692
0.34337072
0.3669655
0.29997388
0.15883829
0.02190669
0.0070783933
0.0071609008
0.098070224
0.23917969
0.32846536
0.34754402
0.29301992
0.17389885
0.034813632
0.0067926252
0.0076009063
0.11293132
0.23409062
0.3068978
0.32213938
0.2782771
0.17937135
0.048748332
0.0066055774
0.0090133194
0.1216095
0.22402066
0.28310868
0.29526644
0.26007894
0.1786543
0.061455682
0.0066017344
0.012028672
0.12571072
0.21162428
0.25970147
0.2694744
0.24108552
0.17409152
0.072154528
0.0069968617
0.017032016
0.12651254
0.19856144
0.23799493
0.24594427
0.22280008
0.16738296
0.080081268
0.0082267051
0.023329851
0.12513344
0.18587028
0.2185481
0.22508667
0.2060109
0.1597664
0.085119485
0.010743375
0.029782784
0.12265506
0.17427974
0.20149601
0.2068875
0.19111065
0.15225601
0.087975855
0.01466996
0.035616959
0.12033113
0.1642325
0.18691134
0.19136652
0.17829764
0.14568871
0.089994184
0.019678493
0.019679937
0.019651885
0.019650641
0.019650612
0.019650599
0.019650596
0.019650603
0.019650624
0.019650667
0.019653996
0.019676112
0.017004478
0.016694392
0.01668158
0.016676168
0.016674118
0.016673762
0.016674837
0.0166781
0.016686454
0.016710158
0.017007464
0.014891561
0.014660561
0.014649986
0.014641385
0.014636832
0.014635851
0.014638498
0.014644896
0.014655029
0.014667009
0.014893653
0.013238485
0.013052338
0.013042497
0.013032212
0.013025165
0.013023463
0.013027801
0.013036943
0.013047132
0.013056453
0.01323958
0.011916849
0.011761155
0.011748138
0.011734815
0.011725097
0.01172275
0.011728766
0.011741112
0.011754356
0.011766044
0.011916928
0.010846441
0.010715349
0.01070052
0.010687702
0.01067789
0.010673119
0.010681289
0.010693315
0.010707519
0.010722027
0.010845752
0.0099787088
0.0098754642
0.0098725261
0.0099049437
0.0099011192
0.0097988099
0.009903086
0.0098792102
0.0098727796
0.009881894
0.0099767773
0.0092877485
0.0092296919
0.0092941883
0.0095160056
0.012179699
0.014288003
0.010294702
0.009291908
0.0092550928
0.0092268987
0.009282765
0.008758093
0.0087911298
0.0092163468
0.04437826
0.19436577
0.24587937
0.11402705
0.01348343
0.008854359
0.0087531252
0.0087457683
0.0083625911
0.0085392066
0.036382716
0.31512549
0.61479228
0.68631246
0.48499412
0.14576375
0.010475847
0.0084364671
0.0083397082
0.0080439615
0.010167998
0.16648679
0.53396952
0.80323415
0.86446488
0.69044384
0.35290293
0.040770382
0.0081803045
0.0080110367
0.007732312
0.022460095
0.27148177
0.58066446
0.78482782
0.82904133
0.70026078
0.43639736
0.11204179
0.0084530882
0.0076981425
0.0074070222
0.047580291
0.30982697
0.55949614
0.7199679
0.75538808
0.65384816
0.44467632
0.16760528
0.010594574
0.0073777265
0.0070878773
0.075994539
0.31555885
0.51771945
0.64122957
0.66746287
0.59117321
0.42614053
0.19492484
0.016123059
0.0070658626
0.0068506066
0.098433272
0.30618743
0.4669255
0.55890262
0.57767582
0.52240413
0.39558461
0.20535008
0.025151452
0.0067820056
0.0067617923
0.11322514
0.28911971
0.41559466
0.48401013
0.49756397
0.45734274
0.36053121
0.20602876
0.036224115
0.0065478766
0.0069482709
0.12184361
0.26883648
0.36863074
0.42043704
0.43049673
0.40051439
0.32584213
0.20090073
0.047557506
0.0063995538
0.0076567542
0.1258898
0.24814011
0.32774061
0.36793265
0.37564181
0.35262275
0.29398909
0.19258438
0.057890431
0.0064705092
0.0092479106
0.12664427
0.22853924
0.29296648
0.32490953
0.33099128
0.31282207
0.26586375
0.18280989
0.06667195
0.006959403
0.012052982
0.12522816
0.21078654
0.26371331
0.28959095
0.29449323
0.27984788
0.24159189
0.17274473
0.073062292
0.0083015553
0.016092575
0.12272285
0.1951997
0.23909933
0.26039593
0.26442604
0.252401
0.22084171
0.16328438
0.077259502
0.011070162
0.021060123
0.12036595
0.18187429
0.21877405
0.23677884
0.2402039
0.23001578
0.20343268
0.15504909
0.080334673
0.01571821
0.01965806
0.019650715
0.019650607
0.019650572
0.019650554
0.019650549
0.019650557
0.019650582
0.019650628
0.019650933
0.019669548
0.016710965
0.016684883
0.016676007
0.016672261
0.016670654
0.016670347
0.016671263
0.016673737
0.016679149
0.016691131
0.016999926
0.014668598
0.014653762
0.01464106
0.014632602
0.014627927
0.014626924
0.014629738
0.014636253
0.014646536
0.014656822
0.014889181
0.013058251
0.013045924
0.013031635
0.013018178
0.01300963
0.01300766
0.013012951
0.013024287
0.013038707
0.0130479
0.013235839
0.011767398
0.011752306
0.01173396
0.011715466
0.011704438
0.01170161
0.01170822
0.011723925
0.011743226
0.011755946
0.011913861
0.010722213
0.010704937
0.010686753
0.010670849
0.010697777
0.010698362
0.010676182
0.010676884
0.010695057
0.010709474
0.01084441
0.0098804979
0.0098719368
0.0099041663
0.0098635885
0.010261254
0.010593961
0.0099671875
0.0099008482
0.0098739038
0.0098699145
0.0099802936
0.0092231216
0.0092655232
0.0095185826
0.026911286
0.12927535
0.17420574
0.069699482
0.011952566
0.0093138477
0.0092292274
0.0092989896
0.0087477145
0.0088986266
0.044560461
0.4091134
0.81702177
0.91522482
0.63779824
0.18604115
0.010819187
0.0088060172
0.0087888306
0.0084308044
0.014962077
0.316087
0.89614325
1.3609743
1.4716581
1.1579597
0.60551292
0.092655719
0.0086287762
0.0084250303
0.0081956915
0.075367142
0.53503819
1.0457228
1.3466166
1.4888555
1.2721397
0.79639217
0.27769713
0.012495799
0.0081321961
0.0088638238
0.16510954
0.58145415
0.96521421
1.197374
1.309627
1.1321387
0.78042234
0.37199623
0.034101464
0.0078371519
0.012110764
0.21615806
0.56001103
0.8608845
1.0932864
1.1515125
0.98946455
0.71713291
0.39221124
0.065985591
0.0076636619
0.018973649
0.23604311
0.51802017
0.7436569
0.89186495
0.92485069
0.82949874
0.63959237
0.38317301
0.095593068
0.007884787
0.028718817
0.239769
0.46709079
0.63068394
0.7242753
0.74342297
0.68665609
0.5580746
0.36108478
0.116408
0.0089004662
0.03974493
0.23449802
0.41567955
0.53494851
0.59676613
0.60871125
0.57273259
0.48361704
0.33321142
0.1289459
0.011107829
0.050548926
0.22428993
0.36866725
0.45775498
0.50101397
0.50907636
0.48458106
0.42025751
0.30422475
0.13541515
0.014681253
0.060321479
0.21179099
0.32774693
0.39626551
0.4282295
0.43406391
0.4162724
0.36785679
0.27673673
0.13754738
0.019687364
0.068491317
0.19865514
0.2929536
0.34713532
0.37181194
0.37626774
0.36267243
0.32489689
0.25190461
0.13660157
0.025752714
0.074338914
0.18591366
0.26368963
0.30747939
0.32718577
0.33073396
0.31992667
0.28963049
0.23011271
0.13371691
0.03209118
0.078109633
0.17428758
0.23906793
0.27514218
0.29135984
0.29428827
0.28539719
0.26048379
0.21130331
0.12995748
0.037957381
0.080850885
0.16421332
0.21873672
0.2494028
0.26342996
0.26599603
0.25825511
0.23690569
0.1953959
0.12657693
0.042995377
0.019677329
0.019652949
0.019650669
0.019650586
0.019650547
0.019650521
0.019650511
0.019650523
0.019650553
0.019650605
0.019650751
0.019657063
0.017011673
0.0167007
0.016680981
0.016673732
0.016670435
0.016668872
0.016668543
0.016669436
0.016671736
0.016676383
0.01668773
0.016993517
0.014895353
0.014663956
0.014648906
0.014636147
0.014627529
0.014622588
0.01462151
0.014624493
0.014631276
0.014641684
0.014656034
0.014887359
0.013240874
0.013054736
0.013041127
0.013024028
0.013008981
0.012999315
0.012996933
0.013003085
0.013015778
0.013032451
0.013047851
0.013233943
0.01191783
0.011763347
0.011746009
0.011723438
0.011703493
0.011688657
0.011680523
0.011695106
0.011712102
0.011734803
0.011754688
0.011911211
0.010845986
0.010717665
0.010698164
0.010675923
0.010696767
0.010674625
0.010579412
0.010694681
0.010672731
0.010686994
0.010707231
0.010841192
0.0099766515
0.0098780378
0.0098761684
0.0098997996
0.01026127
0.015517058
0.019258829
0.011949726
0.0098813275
0.0099027598
0.0098708897
0.0099779926
0.0092835674
0.0092308322
0.009307029
0.012205375
0.12955954
0.42607172
0.51105342
0.28327266
0.038160546
0.0094732879
0.0092490701
0.0093015137
0.0087507034
0.0087856867
0.0099069987
0.1953202
0.81810806
1.357898
1.4829473
1.1253441
0.48817134
0.039650981
0.0088225233
0.008805301
0.0083519333
0.0084907128
0.064916144
0.61671989
1.3629787
1.9685847
2.0973512
1.7069215
0.9885863
0.28351441
0.01116882
0.0084599101
0.0080314516
0.0096834231
0.21813778
0.80515495
1.3483434
1.9693844
2.1410693
1.8349971
1.1213034
0.50033582
0.045791383
0.0082025612
0.0077227704
0.018131425
0.3163213
0.78603846
1.198412
1.6784802
1.9475072
1.6316439
1.0218493
0.55298278
0.11060174
0.0083057387
0.007402752
0.035793626
0.34513765
0.72054489
1.0937158
1.4449669
1.5251509
1.2842508
0.90401042
0.53672375
0.16068659
0.0097822797
0.0070906611
0.055431143
0.34385017
0.64143707
0.89196512
1.0725993
1.1128923
0.99508214
0.77328321
0.49926291
0.18666676
0.013746261
0.0068138961
0.0730598
0.32870767
0.55892865
0.72425382
0.82132438
0.84129198
0.78196565
0.6504359
0.45249228
0.19719917
0.020241058
0.006610824
0.087662365
0.3069845
0.48395217
0.59670426
0.65400847
0.66493866
0.63180679
0.54851864
0.40449441
0.19874173
0.028912987
0.0065538057
0.098510359
0.28309888
0.42034131
0.50094054
0.53822277
0.54494988
0.52424944
0.46752263
0.36007357
0.19471707
0.038593251
0.0068102546
0.10532868
0.2596347
0.3678214
0.42815525
0.45453029
0.45913129
0.44486109
0.4036259
0.3210567
0.18740558
0.047894232
0.0076915666
0.10873822
0.23789591
0.32479381
0.37174113
0.39164223
0.3950615
0.38443888
0.35289262
0.28763818
0.17845339
0.055808275
0.0097423812
0.10962638
0.21843183
0.28947668
0.32711994
0.34289023
0.34559133
0.33721726
0.31210986
0.25935245
0.16898564
0.061935989
0.013474149
0.10884164
0.20137089
0.26028518
0.29129867
0.30432774
0.30657351
0.2996454
0.27896013
0.23543824
0.15980333
0.066285402
0.018832081
0.10748434
0.18678085
0.23667005
0.2633712
0.27489845
0.27692921
0.27072685
0.25269051
0.21561129
0.15157915
0.069209416
0.019687269
0.019652087
0.019650678
0.019650581
0.019650534
0.01965051
0.019650499
0.019650513
0.019650545
0.019650593
0.019650746
0.01965473
0.017007509
0.016697371
0.016680391
0.016673389
0.016670088
0.016668625
0.016668281
0.016669141
0.016671423
0.016675835
0.016686381
0.016713466
0.014891142
0.014661579
0.014647943
0.014635221
0.01462648
0.014621576
0.014620444
0.014623427
0.014630315
0.014640609
0.014654499
0.014667353
0.013237874
0.013052414
0.013040057
0.013022431
0.013006934
0.012996942
0.01299463
0.013000839
0.013013985
0.013030949
0.01304636
0.013056351
0.011915705
0.011760513
0.011744568
0.011721232
0.011700536
0.011680447
0.011678108
0.011691059
0.011709631
0.011732865
0.011753006
0.011765438
0.010844675
0.01071408
0.010696434
0.010671411
0.010697193
0.010578319
0.010525722
0.010684616
0.010673694
0.010684394
0.010705821
0.010720313
0.0099777208
0.0098735219
0.0098766955
0.0097981777
0.010597827
0.019279189
0.02533364
0.013442372
0.0099211717
0.0098858614
0.0098718624
0.0098774504
0.0092888715
0.0092266118
0.009317939
0.014316914
0.17464656
0.51153049
0.60384935
0.35279735
0.054844514
0.0095846741
0.0092561586
0.0092165319
0.0087641286
0.0087909513
0.010792405
0.24662122
0.91666192
1.4842793
1.6140537
1.2417553
0.56765402
0.055506221
0.0088617135
0.0087324982
0.0083780836
0.0085269158
0.085998617
0.68805624
1.4743109
2.1007022
2.2172064
1.8386189
1.0810637
0.33688651
0.013037593
0.0083982315
0.0080695699
0.010695278
0.25659488
0.8666703
1.4931299
2.1476545
2.2028562
2.0429626
1.2027926
0.5523678
0.060766204
0.0081106552
0.0077617851
0.023556575
0.3503184
0.8297711
1.3125385
1.9540111
2.0025829
1.9261776
1.1693607
0.59276717
0.13569839
0.0082936648
0.0074354817
0.045746595
0.37298193
0.75571201
1.1527844
1.527001
1.5967351
1.3632966
0.94852249
0.56821208
0.1855443
0.0098964032
0.0071302966
0.068411995
0.36668769
0.6674946
0.92523115
1.113351
1.1540977
1.0334832
0.80259976
0.52402913
0.20849884
0.013651891
0.0068901827
0.087578744
0.34718837
0.57752716
0.74343858
0.84135881
0.86147227
0.80180932
0.66937988
0.4714436
0.21581833
0.019603452
0.0068311975
0.10170168
0.32175227
0.49733177
0.60859597
0.66489629
0.67562
0.64317008
0.56121378
0.41890496
0.21430299
0.027251673
0.0070584728
0.110827
0.29487859
0.43023738
0.50892053
0.54487785
0.55132297
0.53148097
0.47648091
0.37115091
0.20754401
0.035691308
0.007790652
0.11588486
0.26910397
0.37538346
0.43390195
0.45905423
0.46339493
0.44990249
0.41027365
0.32973202
0.19796609
0.044122663
0.0093384469
0.11775718
0.2455997
0.33074672
0.37611286
0.39498755
0.39818893
0.38821164
0.35803217
0.29456881
0.18719639
0.052063548
0.012024186
0.117338
0.2247704
0.29426737
0.3305909
0.34552313
0.34804679
0.3401956
0.31621157
0.26497608
0.17627648
0.058580831
0.01599188
0.11542773
0.20659872
0.26421924
0.2941574
0.30651124
0.30861404
0.30210505
0.2823273
0.24005138
0.16587067
0.063385727
0.021072454
0.11283842
0.19110035
0.24001084
0.26587244
0.27686991
0.27878785
0.27291366
0.25558744
0.21947057
0.15650804
0.066200165
0.019653497
0.01965067
0.019650589
0.019650549
0.019650516
0.019650507
0.019650519
0.019650555
0.019650602
0.019650768
0.019658586
0.016704342
0.016682536
0.016674736
0.016671318
0.016669672
0.016669296
0.016670185
0.016672577
0.01667733
0.016689963
0.016995226
0.014665483
0.014651162
0.014638354
0.014629807
0.014624912
0.014623779
0.014626699
0.014633435
0.014643558
0.014657201
0.014887345
0.013055904
0.013043616
0.013027537
0.013013025
0.013003716
0.013001417
0.013007249
0.013019567
0.013035112
0.013048216
0.01323336
0.011764862
0.011749378
0.011728356
0.011708313
0.011695901
0.011691802
0.011700823
0.011717266
0.011738552
0.011755212
0.011909726
0.010719493
0.01070184
0.010680927
0.010676375
0.010695445
0.010685464
0.010695175
0.01067086
0.010690619
0.010708151
0.010838597
0.0098790478
0.0098739512
0.0099031827
0.0099685565
0.011957697
0.013445684
0.010567298
0.0098379418
0.0098824098
0.0098710083
0.0099734862
0.0092269753
0.0092993614
0.01030164
0.069919469
0.28369611
0.35292162
0.1736997
0.021057944
0.0093335188
0.0092418563
0.0092924544
0.0087648803
0.0091487242
0.11431117
0.6390054
1.12669
1.2422068
0.91717421
0.35259864
0.020475283
0.008809818
0.00878729
0.0084329405
0.035609794
0.48576712
1.1609352
1.709858
1.8397587
1.4735599
0.82711427
0.19478535
0.0094568985
0.00843392
0.0086464012
0.15023665
0.69095066
1.2760302
1.8414977
2.0461906
1.7183621
0.98596378
0.40792039
0.026136218
0.0081545456
0.011956674
0.25123152
0.7005029
1.1342236
1.6376689
1.9313385
1.5780307
0.9199596
0.4799175
0.071775976
0.0080301901
0.021927959
0.29096441
0.65377675
0.99046479
1.2859636
1.3640903
1.1524455
0.82591504
0.47870326
0.11895251
0.0085765061
0.0360967
0.29905442
0.5909161
0.82976401
0.99549881
1.0337198
0.92558754
0.71891421
0.4529424
0.14866951
0.010687527
0.051199117
0.29213932
0.52203367
0.68658755
0.78197885
0.80182338
0.74377169
0.61383072
0.41638559
0.16421232
0.015145231
0.064861828
0.27746809
0.4569262
0.57253075
0.63169225
0.64311195
0.60889018
0.52327113
0.3765935
0.17060371
0.022226076
0.076554058
0.25935554
0.40009637
0.48433646
0.5240981
0.53140246
0.50917941
0.44935746
0.33836166
0.17103699
0.031008722
0.085557512
0.24044683
0.35222658
0.4160235
0.44470503
0.44982136
0.4341307
0.38997568
0.30390168
0.16762867
0.040144479
0.091444736
0.22223814
0.31245748
0.36243505
0.38428978
0.38813438
0.37631517
0.34225032
0.27384135
0.16193217
0.048401962
0.094664412
0.20551623
0.27951699
0.31970679
0.33707923
0.34012435
0.33077188
0.30357618
0.24808546
0.15511493
0.05511308
0.095957319
0.19067394
0.25210221
0.28519632
0.29951856
0.30203978
0.29432244
0.27193953
0.22614958
0.1481335
0.060135379
0.096587167
0.17790854
0.22974169
0.25806624
0.27060575
0.27285166
0.26602939
0.24666273
0.20781855
0.14191055
0.063785823
0.019662222
0.019650799
0.019650618
0.019650576
0.019650555
0.019650548
0.019650559
0.019650584
0.019650633
0.019651265
0.019676753
0.016996865
0.016689465
0.016678422
0.016674137
0.016672402
0.016672072
0.016673065
0.016675663
0.01668197
0.01670043
0.017000579
0.014889063
0.01465795
0.014645394
0.01463695
0.014632351
0.014631368
0.014634193
0.014640501
0.01465062
0.01466317
0.014888284
0.013235904
0.01304981
0.013037537
0.013025325
0.013017335
0.013015473
0.013020589
0.013031056
0.013043351
0.013053845
0.013234897
0.011912777
0.011757298
0.011741781
0.011725348
0.011714179
0.011711574
0.011718556
0.011733264
0.01174945
0.011762965
0.01191276
0.010840819
0.010710644
0.01069425
0.010678677
0.01067506
0.010675897
0.010672242
0.010686336
0.01070201
0.010718302
0.010842985
0.0099729911
0.009874199
0.0098806433
0.0099026547
0.0098833452
0.0099214735
0.009838988
0.0099066779
0.0098732275
0.0098796218
0.0099772143
0.0092858491
0.0092468973
0.0092947151
0.011971299
0.038270516
0.054811259
0.02102811
0.0096642463
0.0092947369
0.009232186
0.0092906869
0.0087685999
0.0088312385
0.013506091
0.18663893
0.48900389
0.56740828
0.35204621
0.058690066
0.0090807642
0.0087808835
0.0087702423
0.0083993456
0.0094159947
0.14600435
0.60684279
0.99019833
1.0812561
0.82622869
0.36941813
0.030095317
0.0084752491
0.0083900297
0.0081122519
0.026092148
0.35306528
0.79778601
1.1228774
1.2029521
0.98524695
0.58566334
0.14238586
0.0088664132
0.0080872062
0.0078350073
0.075640283
0.43631899
0.7812613
1.0227876
1.1699446
0.91960194
0.62089723
0.24658828
0.013855985
0.0077840231
0.0077298769
0.12694991
0.44437239
0.71746427
0.90446396
0.94869053
0.82572128
0.59140562
0.28854831
0.027759838
0.0074716563
0.0081349578
0.15786398
0.42568815
0.63957024
0.773317
0.80257175
0.71876372
0.54287103
0.29774259
0.04656812
0.0072175705
0.0097134768
0.17290316
0.39505991
0.55786255
0.65027883
0.66923594
0.61368179
0.48619859
0.2914441
0.065158012
0.0071877655
0.013265923
0.17843342
0.35999152
0.48332211
0.54829114
0.56102484
0.52312322
0.43026652
0.2771545
0.080653326
0.0076391948
0.019331074
0.17780315
0.32532147
0.41993635
0.46727681
0.47628373
0.4492183
0.37992303
0.25921316
0.092688528
0.0090610943
0.027036919
0.17333122
0.29350286
0.36753699
0.40338386
0.41008417
0.38984929
0.33659556
0.24037315
0.10067256
0.011958485
0.03518145
0.16670904
0.26541704
0.32459089
0.35266338
0.35785661
0.34213781
0.3000578
0.22220684
0.1049921
0.016566759
0.04263929
0.15916968
0.24118425
0.2893434
0.31189678
0.31605166
0.30347699
0.26950038
0.20554995
0.10662811
0.022319626
0.048780453
0.15172684
0.22047159
0.26021808
0.27876301
0.28218185
0.27185165
0.24389183
0.19082874
0.10658833
0.028280659
0.053715683
0.14521765
0.20309344
0.23665508
0.25250314
0.25545172
0.24658335
0.22283729
0.17820404
0.10638396
0.033841233
0.019687883
0.019653428
0.019650686
0.019650632
0.019650606
0.019650602
0.019650618
0.019650644
0.019650813
0.01965669
0.017005249
0.016708526
0.0166872
0.016679911
0.016677159
0.016676761
0.016678314
0.016682504
0.016691099
0.016994277
0.014891259
0.014667983
0.014656099
0.014647725
0.014642971
0.01464208
0.014645078
0.014651453
0.014658363
0.014889232
0.013238377
0.01305788
0.013048437
0.013040393
0.013034383
0.013033024
0.013037174
0.013044476
0.01305033
0.013235979
0.011916616
0.01176724
0.011755848
0.01174551
0.011737513
0.011735625
0.011741112
0.011750718
0.011759127
0.011911723
0.010846
0.010722901
0.010709348
0.01069798
0.010690341
0.010687657
0.010693478
0.010703325
0.01071316
0.010838361
0.0099785814
0.0098838816
0.0098752032
0.009877151
0.0099063381
0.0098884691
0.0098851644
0.0098748349
0.0098740551
0.0099683379
0.0092880489
0.0092340808
0.0092582819
0.0093166439
0.0094774685
0.009586219
0.0093348379
0.009296444
0.009232263
0.0092789388
0.0087571021
0.0087700502
0.0088577065
0.01083944
0.039777411
0.055362971
0.020356171
0.0090800418
0.0088054832
0.0087629845
0.0083585455
0.0084674997
0.010493887
0.093126968
0.28406919
0.33623553
0.19366266
0.029947563
0.0086124256
0.0084013559
0.0080354392
0.0082821614
0.040866784
0.27845748
0.50090353
0.55162961
0.40645204
0.14168816
0.011228562
0.0081286285
0.0077219581
0.0090352328
0.11211672
0.37255267
0.55330359
0.59216459
0.47870651
0.24575856
0.027915694
0.0079251119
0.0073963884
0.012916535
0.16751306
0.39248013
0.53679849
0.56769496
0.47774779
0.28782119
0.059273339
0.0080636266
0.0070799652
0.021741992
0.19468181
0.38321002
0.49913914
0.52355315
0.45217535
0.29711527
0.090644438
0.0091189019
0.006797847
0.034504409
0.20500839
0.36095604
0.45225384
0.47099282
0.41575765
0.29091701
0.11277537
0.012247423
0.0065636837
0.048322065
0.20562869
0.33298394
0.40420367
0.41848442
0.37607051
0.27672396
0.12619885
0.018799072
0.0064771316
0.06094596
0.2004748
0.30394472
0.35976634
0.37076613
0.33792354
0.25886666
0.13331064
0.028523043
0.0066508776
0.071591016
0.19215535
0.27643269
0.32075178
0.32938485
0.30353359
0.24009315
0.13582854
0.039194004
0.0073645317
0.079517294
0.18239099
0.25159409
0.28734477
0.29425786
0.27353066
0.2219788
0.13516573
0.048991199
0.0090424325
0.08457813
0.17234265
0.22980587
0.2590748
0.26469828
0.24782185
0.20536377
0.13253438
0.056929897
0.01207229
0.087465641
0.16290348
0.21100705
0.23517729
0.23980249
0.2259238
0.19067446
0.1290555
0.062779476
0.016566933
0.089517479
0.15468926
0.1951098
0.21536318
0.21924386
0.20762204
0.17807349
0.12585269
0.067022964
0.01968087
0.019654011
0.019650953
0.019650763
0.019650759
0.019650786
0.019651279
0.019656679
0.019677543
0.01700181
0.016710823
0.016691796
0.016688529
0.016687377
0.016690978
0.016701174
0.016994525
0.017003266
0.014888527
0.014668019
0.014657912
0.014657263
0.014656068
0.014659035
0.01466452
0.014889641
0.014889823
0.013234898
0.013057841
0.013049539
0.013049655
0.013048527
0.013050882
0.013055848
0.013236469
0.013236286
0.011912715
0.01176766
0.011758256
0.011757212
0.011755706
0.01175855
0.011765503
0.011912747
0.011913766
0.010842142
0.010723799
0.01071247
0.010710443
0.010708851
0.0107117
0.010721047
0.010840067
0.010842656
0.0099746196
0.0098842301
0.0098734088
0.0098745203
0.0098752777
0.0098743842
0.0098826109
0.0099703971
0.0099733414
0.0092838531
0.0092305052
0.0092330199
0.0092526773
0.0092595702
0.0092447439
0.0092351349
0.0092812053
0.009278293
0.0087534831
0.0087573908
0.0088094044
0.008825787
0.0088645585
0.0088149246
0.0087832949
0.0087651344
0.0087404522
0.0083563456
0.0084404983
0.0086333925
0.01118296
0.013006582
0.0094417441
0.0084764972
0.0084024596
0.0083333735
0.008035392
0.0081840975
0.012533178
0.045895315
0.060391453
0.025834136
0.0088538504
0.0081285787
0.008004551
0.0077232657
0.0084604212
0.034279029
0.11073892
0.13495174
0.070907999
0.013731114
0.0079225593
0.0076921147
0.0073962918
0.010609202
0.066276755
0.16070665
0.1847264
0.11771117
0.02738437
0.0080543012
0.0073722064
0.0070790513
0.016137033
0.095787611
0.18656584
0.20771679
0.1474781
0.045981532
0.0090912195
0.0070596668
0.0067932991
0.025144883
0.1164533
0.19700611
0.21509099
0.16313879
0.064473505
0.012179994
0.0067810948
0.0066052042
0.036167001
0.12889103
0.19848073
0.21364221
0.16966628
0.079954577
0.018665121
0.0065579189
0.0065977853
0.047431184
0.13528656
0.19441695
0.20695071
0.17023987
0.092036324
0.028326929
0.006464145
0.006981402
0.057698261
0.13736353
0.18709006
0.1974378
0.1669546
0.1000924
0.038962447
0.0066177723
0.0081815647
0.066426625
0.13638278
0.1781377
0.18672815
0.16136195
0.10448576
0.048752995
0.0072384363
0.010645171
0.07278533
0.13347662
0.16867834
0.17586101
0.15463005
0.10619035
0.05670534
0.0086951108
0.014501219
0.076967126
0.12970498
0.15950859
0.16550054
0.14771861
0.10621091
0.062578629
0.011409663
0.019435761
0.080040232
0.12631584
0.15129705
0.15617474
0.14155213
0.10605594
0.066843024
0.015671557
0.019676313
0.019669554
0.019657066
0.019654742
0.019658588
0.01967676
0.017007886
0.017000568
0.016994267
0.016714201
0.016996247
0.017001378
0.014894177
0.014890176
0.014888572
0.014668627
0.014889367
0.014889692
0.01324025
0.013237281
0.013235544
0.013058069
0.013236235
0.013237103
0.011917735
0.011915709
0.011913271
0.011767509
0.011913452
0.011915837
0.010846653
0.010846749
0.010843711
0.010722464
0.010842329
0.010846269
0.0099781209
0.0099835692
0.0099810396
0.0098799462
0.009976493
0.0099801331
0.0092844476
0.0093030231
0.0093047545
0.0092192654
0.0092949194
0.0092936118
0.0087478419
0.00879369
0.0088088123
0.0087352475
0.0087896814
0.008773087
0.0083420148
0.0084295802
0.0084629813
0.008400573
0.0084363711
0.008392931
0.0080134339
0.0081361684
0.0082052455
0.0081118616
0.0081566378
0.0080897035
0.0077005491
0.0078406439
0.0083090681
0.0082866867
0.0080276934
0.0077860913
0.0073799159
0.0076681642
0.0097885392
0.0098600339
0.0085491804
0.0074744072
0.0070679881
0.0078934324
0.013751579
0.013556091
0.01059129
0.0072156803
0.0067841521
0.0089156661
0.020232255
0.019428927
0.014940306
0.007176641
0.0065501367
0.011127836
0.028869297
0.026993323
0.021882562
0.0076029585
0.0064019146
0.014697705
0.038498589
0.035355264
0.030554225
0.0089720728
0.0064724264
0.019686725
0.047751804
0.043711871
0.039626501
0.011790581
0.0069584857
0.025718164
0.055630572
0.051611701
0.047866687
0.016304319
0.0082898572
0.032014471
0.061735342
0.058124324
0.054588882
0.021991395
0.011030621
0.037841626
0.066070606
0.062945407
0.059638724
0.027922568
0.015624083
0.042848626
0.068982819
0.065785418
0.063324797
0.033474869
0.019676317
0.01967676
0.017631943
0.017622509
0.019669556
0.019658578
0.017619838
0.017610042
0.019687545
0.017638379
0.017634325
0.019657055
0.019654729
0.017607926
0.017939093
0.019677412
0.017634476
0.017638316
0.019654716
0.01965706
0.017939163
0.017607535
0.019658575
0.019669544
0.017610341
0.017619554
0.019676758
0.019676312
0.017622459
0.017631914
0.015292489
0.032962122
0.019877835
0.036193867
0.042404551
0.062888949
0.044962985
0.065762033
0.021220564
0.023645973
0.025390448
0.068582154
0.065487989
0.070574025
0.078786405
0.019061229
0.025428685
0.023912386
0.06561347
0.06889856
0.078838884
0.070871709
0.063270926
0.04288626
0.066117504
0.045433938
0.033421904
0.015712083
0.036662824
0.020400048
0.019677544
0.017627209
0.019687846
0.017630136
0.019680892
0.019656706