/*--------------------------------*- C++ -*----------------------------------*\
  =========                 |
  \\      /  F ield         | OpenFOAM: The Open Source CFD Toolbox
   \\    /   O peration     | Website:  https://openfoam.org
    \\  /    A nd           | Version:  8
     \\/     M anipulation  |
\*---------------------------------------------------------------------------*/
FoamFile
{
    version     2.0;
    format      ascii;
    class       volScalarField;
    location    "100";
    object      nut;
}
// * * * * * * * * * * * * * * * * * * * * * * * * * * * * * * * * * * * * * //

dimensions      [0 2 -1 0 0 0 0];

internalField   nonuniform List<scalar> 
72028
(
0.001997461
0.0019974125
0.0019737
0.0019735383
0.0019522452
0.0019521452
0.0019335577
0.0019335122
0.0019172437
0.0019172379
0.0019033679
0.0019034592
0.0018926167
0.0018929389
0.0018865916
0.0018874512
0.0018872634
0.0018891496
0.0018948764
0.0018985183
0.0019050475
0.0019104509
0.0019106774
0.0019164851
0.0019095829
0.0019150558
0.001905469
0.0019139165
0.0019045763
0.001924212
0.0019185269
0.001980317
0.0019701103
0.0021190695
0.0021072631
0.0024001442
0.002420534
0.0029048155
0.0030453111
0.0037091888
0.0040862573
0.0048219822
0.0054939432
0.0061831976
0.0019973519
0.0019971666
0.0019971247
0.0019971171
0.0019971288
0.0019972041
0.0019974266
0.0019734941
0.0019707176
0.0019706248
0.0019705945
0.0019706569
0.0019733578
0.0019735162
0.0019521094
0.0019497064
0.0019496783
0.0019496566
0.0019496683
0.0019519861
0.0019521309
0.0019334542
0.0019312956
0.0019312843
0.0019312482
0.0019312413
0.0019333005
0.0019334899
0.0019171888
0.0019153085
0.0019153165
0.0019152483
0.0019152525
0.0019170137
0.0019172301
0.0019034051
0.0019020274
0.0019021444
0.0019020344
0.0019020316
0.00190325
0.0019034383
0.0018928278
0.0018926478
0.0018932124
0.0018930518
0.0018928944
0.0018928152
0.0018928495
0.0018870749
0.0018896367
0.0018916907
0.0018916373
0.0018905308
0.0018876286
0.0018870434
0.001888182
0.0018968404
0.0019026758
0.0019048722
0.0018988837
0.0018904013
0.0018878896
0.0018963299
0.0019157787
0.0019192271
0.0019268223
0.0019130235
0.0019021451
0.0018955384
0.0019068719
0.0019357302
0.0022494396
0.0024579145
0.0020441205
0.0019172649
0.0019054129
0.0019121863
0.0021708905
0.0040398326
0.0050880949
0.0028363504
0.0019298158
0.001910495
0.0019105917
0.0029718737
0.007410577
0.0088784265
0.0050493939
0.0019825384
0.0019086961
0.0019052455
0.0045718383
0.010518624
0.012129823
0.0078303783
0.0021685345
0.0019039532
0.0019151508
0.0066358828
0.013026181
0.014951106
0.010296888
0.0026463837
0.0019019224
0.0019604385
0.0086446555
0.015293872
0.017321328
0.012363887
0.0035449394
0.0019081014
0.002082215
0.010415464
0.01735685
0.019308844
0.014324595
0.0048545676
0.0019531078
0.0023343276
0.012094798
0.019133406
0.020978422
0.016168516
0.0063665533
0.0020756002
0.0028079239
0.013775754
0.020613824
0.022314886
0.017786945
0.0079765834
0.0023427332
0.0035475113
0.015323728
0.02182545
0.023351031
0.019170868
0.0095807465
0.0028708904
0.0045217447
0.016712151
0.022787297
0.024174574
0.020340099
0.011094402
0.0037309433
0.0057366146
0.018062341
0.023677832
0.024888324
0.021456815
0.012536093
0.0049272065
0.0019972937
0.0019971154
0.0019971069
0.0019971068
0.001997107
0.0019971067
0.001997106
0.0019971278
0.0019973591
0.0019734166
0.0019705868
0.0019704704
0.0019704349
0.0019704269
0.0019704369
0.0019704925
0.0019706601
0.0019734272
0.0019520374
0.0019496748
0.0019495699
0.0019495258
0.0019495057
0.0019495171
0.0019495683
0.0019496432
0.0019520213
0.0019333811
0.0019312739
0.0019311864
0.0019311684
0.0019311398
0.0019311312
0.001931153
0.0019312182
0.0019333386
0.0019171035
0.0019152743
0.0019152559
0.0019153265
0.0019153037
0.0019152384
0.0019151728
0.0019152621
0.0019170455
0.0019033535
0.0019020618
0.0019024382
0.0019029553
0.0019029854
0.0019026441
0.0019021307
0.0019020882
0.0019032422
0.0018929629
0.0018930814
0.00189504
0.0018979542
0.001898341
0.001896311
0.0018939301
0.0018930044
0.0018926391
0.0018877935
0.0018918402
0.0018990145
0.0019069152
0.0019082512
0.0019058357
0.0018952975
0.0018907769
0.0018867936
0.001889942
0.0019039702
0.0019203105
0.0021200246
0.0022724959
0.001980757
0.0019094358
0.0018993392
0.001887625
0.0018997078
0.0019297685
0.0031298236
0.010534072
0.013023946
0.0066357106
0.00211507
0.0019195221
0.0018953898
0.0019119377
0.0023483148
0.01178526
0.026737277
0.030574995
0.020074131
0.0052806954
0.001950617
0.0019055136
0.0019183021
0.0047829544
0.021831197
0.037818178
0.041472374
0.031226153
0.012107694
0.002207175
0.0019107358
0.0019206227
0.0086382855
0.028388407
0.042936947
0.04609964
0.037137441
0.018336352
0.0031507129
0.0019087266
0.0019307191
0.012404656
0.032097964
0.044874199
0.047616749
0.039843644
0.022829529
0.0051074269
0.0019040907
0.0019937551
0.015696269
0.034103701
0.045358133
0.047759756
0.040950948
0.025778108
0.0075459503
0.0019012732
0.0021827967
0.01847406
0.035193013
0.045158105
0.047259671
0.04127261
0.027720533
0.009758199
0.0019200379
0.0026016033
0.020637845
0.035765742
0.044608479
0.046453803
0.041174184
0.029059184
0.011737846
0.0019876863
0.0033231401
0.022277697
0.036014497
0.043896598
0.045532489
0.040845249
0.02997741
0.013684501
0.002156552
0.0043829522
0.02353523
0.036054719
0.043135068
0.044601005
0.040399504
0.030596493
0.015524401
0.0025336967
0.0056842403
0.024536262
0.035986175
0.042396897
0.04371956
0.03992373
0.031022501
0.017144585
0.0031973823
0.0071114632
0.025391951
0.035918749
0.041730758
0.042920421
0.039495824
0.031378578
0.018523647
0.0041320899
0.0085648193
0.026292527
0.035953371
0.041203865
0.0422701
0.039191876
0.031818965
0.019847802
0.0053288099
0.0019973528
0.0019971153
0.0019971064
0.0019971065
0.0019971067
0.0019971068
0.0019971066
0.0019971064
0.0019971048
0.0019971327
0.0019973852
0.0019735176
0.0019705876
0.0019704336
0.0019703845
0.0019703775
0.0019703775
0.0019703762
0.0019703897
0.0019704609
0.0019706925
0.0019736031
0.001952168
0.0019496765
0.0019495124
0.0019494451
0.0019494343
0.0019494296
0.0019494252
0.0019494494
0.0019495302
0.0019496585
0.0019522199
0.0019335542
0.0019312715
0.0019311159
0.0019311072
0.0019311471
0.0019311468
0.001931102
0.0019310807
0.0019311069
0.001931212
0.0019335514
0.0019173452
0.0019152562
0.0019152023
0.0019154494
0.0019157122
0.0019157877
0.0019155548
0.0019152908
0.0019151235
0.0019152083
0.0019172556
0.0019035811
0.0019020289
0.0019026146
0.0019040667
0.0019050603
0.001904966
0.0019045802
0.0019032507
0.0019021601
0.0019019569
0.0019033988
0.001892971
0.0018931054
0.0018962959
0.0019068759
0.0019065685
0.00188565
0.0019070235
0.0018998571
0.0018943764
0.0018926695
0.0018926234
0.0018871799
0.0018918358
0.0019047699
0.0019644277
0.0024753219
0.0028528046
0.0021125064
0.0019034583
0.0018974123
0.0018898418
0.0018864362
0.0018882872
0.0019039991
0.0019908869
0.0075022979
0.023271326
0.027941733
0.015422646
0.0027685064
0.0019104929
0.0018971759
0.0018865858
0.0018964054
0.0019298752
0.0065502151
0.034487512
0.060091937
0.065948701
0.049282932
0.01879367
0.0023181637
0.0019154111
0.00189326
0.001906937
0.0023508474
0.021168006
0.056294029
0.079599265
0.084631343
0.070192417
0.039448048
0.0073922804
0.0019329733
0.0019023268
0.0019122435
0.0048046603
0.032994995
0.064178197
0.082728311
0.086565091
0.075364345
0.050141234
0.015950051
0.0020815741
0.0019073349
0.0019106475
0.0086741022
0.038972281
0.065433487
0.080950511
0.084240187
0.074814639
0.053678277
0.022779773
0.0026493131
0.0019060692
0.0019052767
0.012449652
0.041496498
0.064402549
0.077617286
0.080380819
0.072425555
0.054304031
0.027106645
0.0039878488
0.0019017607
0.0019155443
0.015738859
0.04244274
0.062364546
0.07358209
0.075891228
0.069215102
0.05365873
0.029672478
0.0059634018
0.0018987677
0.0019617447
0.018508075
0.04259254
0.059974481
0.069567428
0.071521658
0.065859068
0.052438727
0.031263735
0.0080408797
0.0019038982
0.0020852479
0.020662927
0.042332748
0.057595844
0.065914109
0.067598504
0.062712832
0.051016437
0.032273822
0.0098933625
0.0019295944
0.002340911
0.022296041
0.041871228
0.055392528
0.062710736
0.064188161
0.059901508
0.049585552
0.032892228
0.011629265
0.002016276
0.0028196854
0.023547593
0.041322583
0.053423095
0.059944911
0.061259284
0.05744537
0.048239461
0.033244209
0.013384869
0.0022232162
0.0035637129
0.024545273
0.040773114
0.051704411
0.057568461
0.058748283
0.055324274
0.047034035
0.033441969
0.015018387
0.0026620081
0.0045404259
0.02539844
0.040297598
0.050216144
0.055524783
0.056592917
0.053494476
0.045987846
0.033610442
0.016483686
0.0034611305
0.0057565322
0.026293405
0.039962171
0.049019555
0.053892961
0.054876269
0.052027491
0.045156256
0.033870217
0.017880532
0.004692382
0.0019971673
0.001997107
0.0019971062
0.0019971061
0.0019971059
0.0019971058
0.0019971059
0.0019971061
0.0019971061
0.0019971073
0.0019972648
0.001970735
0.0019704693
0.0019703734
0.0019703468
0.0019703476
0.0019703483
0.0019703458
0.0019703524
0.001970388
0.0019705258
0.0019733966
0.0019497286
0.0019495569
0.0019494196
0.0019493805
0.0019493934
0.0019493956
0.0019493805
0.0019493836
0.001949444
0.0019495715
0.0019520185
0.0019313031
0.001931142
0.0019310564
0.0019311171
0.0019312489
0.0019312729
0.0019311723
0.0019310562
0.0019310502
0.0019311175
0.0019333465
0.0019152822
0.0019151591
0.0019153649
0.0019159368
0.001916804
0.0019169392
0.0019163407
0.0019155699
0.001915185
0.001915057
0.001917114
0.0019019482
0.0019022913
0.0019039613
0.0019067805
0.0019158359
0.0019166981
0.0019106436
0.0019049531
0.0019028713
0.0019018085
0.0019034936
0.0018925284
0.0018948792
0.0019067726
0.0019040126
0.0019936858
0.0020586452
0.0019447542
0.0019070927
0.001898007
0.0018929949
0.001893369
0.001889475
0.0018988848
0.0019648981
0.0050045696
0.016874551
0.021331994
0.01060281
0.002427675
0.0019065167
0.0018925338
0.0018888426
0.0018966786
0.0019203344
0.0075243711
0.041501463
0.072824617
0.080010758
0.059431395
0.022400931
0.0022830525
0.0019079708
0.0018925498
0.0019156687
0.0031514063
0.034563903
0.08227508
0.11528122
0.12259666
0.10151626
0.059360434
0.013430341
0.0019585548
0.0019050593
0.0019360631
0.011858883
0.0563703
0.098509279
0.11879093
0.12785731
0.11471014
0.079118941
0.032273349
0.0028045527
0.0019195305
0.0021753724
0.021945004
0.064229023
0.097485073
0.11371076
0.12103214
0.10942494
0.082466814
0.043598027
0.0068059401
0.001929474
0.0029908183
0.028489041
0.06546423
0.093440744
0.11166714
0.1159149
0.10406381
0.080810186
0.048080827
0.011288895
0.0019656083
0.004609355
0.03217402
0.064418826
0.088045917
0.10225004
0.10531507
0.09653948
0.07754225
0.049416222
0.01521339
0.002103299
0.0066829938
0.034162253
0.062370844
0.082218331
0.093420236
0.095732603
0.089027554
0.073545132
0.049394078
0.018390133
0.0024391814
0.0086872473
0.035233714
0.059973875
0.076822451
0.085993354
0.087846843
0.082446545
0.069549191
0.048713961
0.020915784
0.0030677409
0.010452243
0.035790173
0.057590166
0.072135463
0.079911136
0.081469271
0.076925176
0.065903707
0.047749034
0.022841534
0.0039411692
0.012127806
0.036026006
0.055383055
0.068152803
0.074927363
0.076280925
0.072335053
0.062704881
0.046696296
0.024294381
0.0050087835
0.013802644
0.036056594
0.053410858
0.064785738
0.070799539
0.072000223
0.068502858
0.059945724
0.045657183
0.025378182
0.0062323735
0.01534259
0.035980911
0.051690472
0.061926303
0.067335292
0.068416457
0.065271052
0.057579562
0.044698646
0.02622174
0.007554018
0.016723233
0.035907848
0.050200844
0.059493775
0.064420036
0.065407046
0.062539615
0.055549009
0.043863451
0.026929785
0.0089158315
0.018065591
0.035937597
0.049003077
0.057577795
0.062166482
0.063090227
0.060412166
0.053930404
0.043209261
0.027702226
0.010279212
0.0019974567
0.0019971254
0.0019971066
0.001997106
0.0019971055
0.0019971047
0.0019971044
0.0019971047
0.0019971054
0.0019971059
0.0019971067
0.0019971624
0.0019737065
0.0019706448
0.0019704315
0.0019703504
0.0019703322
0.0019703337
0.001970333
0.0019703289
0.0019703325
0.0019703655
0.0019704747
0.0019733131
0.0019522752
0.0019497049
0.0019495093
0.0019493795
0.0019493615
0.0019493903
0.0019493959
0.0019493683
0.0019493526
0.0019494068
0.0019495472
0.0019519548
0.0019336111
0.00193129
0.001931114
0.0019310459
0.0019311911
0.0019313861
0.001931406
0.0019312808
0.0019310812
0.0019310339
0.0019311194
0.0019332773
0.0019173303
0.001915264
0.0019152071
0.0019155475
0.0019167103
0.0019172956
0.0019167411
0.0019171591
0.0019159912
0.0019152927
0.0019151075
0.0019170318
0.0019034613
0.0019020121
0.0019027715
0.0019048364
0.0019157243
0.0019107112
0.0018955148
0.0019168304
0.0019079448
0.0019037027
0.0019020827
0.0019034519
0.0018926965
0.0018930336
0.0018977563
0.0019062226
0.0019937489
0.0029414279
0.0035895795
0.0023113737
0.0019066803
0.0019061215
0.0018940606
0.0018935693
0.0018866602
0.0018915129
0.0019065694
0.0024802212
0.016901368
0.042053792
0.04846168
0.030777405
0.0066628053
0.001959325
0.0018956115
0.0018897995
0.0018873555
0.001902673
0.0021222809
0.023349521
0.072876278
0.11048612
0.11875411
0.094802599
0.047816574
0.0069911919
0.0019053458
0.0018954778
0.0018950121
0.0019194565
0.010600105
0.060203966
0.1153357
0.15272484
0.16041274
0.1373217
0.089269362
0.031900488
0.0024439034
0.0019102299
0.0019052412
0.0022549918
0.026845984
0.079673064
0.11880218
0.15486707
0.16475078
0.14785089
0.10418198
0.053286538
0.0083918844
0.0019321018
0.0019109261
0.0040676032
0.037904674
0.082734802
0.11365785
0.14066352
0.15472628
0.13884358
0.10198127
0.061596062
0.016451439
0.0020337658
0.0019098498
0.0074556675
0.042981356
0.080917645
0.11159927
0.13519649
0.14066471
0.12493915
0.097164589
0.063193411
0.022494947
0.0024581494
0.0019057469
0.010556416
0.044887752
0.077570193
0.10219377
0.11802418
0.12151221
0.1115303
0.091068359
0.06244371
0.026418512
0.0034459503
0.0019049624
0.013050797
0.045349775
0.07353092
0.093372024
0.10478294
0.10715887
0.10027642
0.084673457
0.060666881
0.028927042
0.0048186653
0.0019192422
0.015307347
0.045134454
0.069515762
0.085950968
0.094889957
0.096696365
0.091430021
0.078870729
0.058513416
0.030533605
0.0064245749
0.0019715101
0.017356685
0.044574897
0.065863051
0.079873023
0.087312936
0.088798644
0.084459561
0.073893122
0.05633403
0.031556716
0.0081562877
0.0021099554
0.019121219
0.043856935
0.062660733
0.07489252
0.081330884
0.082612395
0.078871667
0.06969545
0.054288676
0.032200922
0.0099070574
0.0024253073
0.020592631
0.043091582
0.059896232
0.070767361
0.076475604
0.077612556
0.074298535
0.066160434
0.052440136
0.032594153
0.011579288
0.003052315
0.021797279
0.042350958
0.057521306
0.06730538
0.072451473
0.073478492
0.0704895
0.063163326
0.050810614
0.032825973
0.013110051
0.0040917368
0.022755099
0.041683261
0.055479094
0.064391985
0.069102246
0.070045203
0.06730552
0.060617648
0.04938746
0.032976774
0.014467971
0.0054936615
0.023642131
0.041155106
0.053848153
0.062139615
0.066566411
0.067457183
0.064874874
0.058619737
0.048236332
0.03316726
0.01568298
0.0019974127
0.0019971181
0.0019971067
0.0019971058
0.0019971049
0.0019971043
0.0019971039
0.0019971044
0.0019971052
0.0019971055
0.0019971067
0.0019971383
0.0019735529
0.001970629
0.0019704315
0.0019703514
0.0019703303
0.0019703391
0.0019703377
0.0019703309
0.0019703338
0.0019703569
0.001970453
0.0019707249
0.0019521913
0.0019497143
0.0019495093
0.0019493796
0.0019493607
0.0019494028
0.0019494066
0.001949372
0.0019493541
0.0019493935
0.0019495106
0.0019496497
0.0019335917
0.0019313042
0.0019311205
0.0019310557
0.0019312096
0.0019314101
0.0019314564
0.001931301
0.0019310997
0.001931026
0.0019310763
0.0019311832
0.0019173512
0.0019152602
0.0019152342
0.0019156377
0.0019168346
0.0019167389
0.0019171238
0.001917138
0.0019161427
0.0019153271
0.001915078
0.0019151243
0.0019035332
0.0019019779
0.0019028682
0.0019047766
0.0019165631
0.0018953329
0.0018868873
0.0019157542
0.0019090385
0.001903772
0.0019021529
0.001901738
0.0018930101
0.0018929572
0.0018982516
0.0018856912
0.002059366
0.0035930321
0.0046049575
0.0025792357
0.0019167332
0.0019029247
0.0018945352
0.0018921149
0.0018874761
0.0018915594
0.0019082572
0.002857653
0.021366851
0.048483915
0.055260731
0.036356971
0.008891621
0.0019766205
0.0018968581
0.0018885477
0.0018892093
0.0019048787
0.0022749032
0.027986824
0.080049175
0.11877081
0.12718431
0.10274606
0.054080029
0.0090944704
0.0019121392
0.0018945335
0.0018985877
0.001927088
0.013049163
0.065997676
0.12258897
0.16040335
0.1674977
0.14517908
0.095974827
0.036662605
0.0027885257
0.0019110757
0.0019105542
0.002459513
0.030573217
0.084624405
0.12779052
0.16465364
0.16970845
0.15892188
0.1098396
0.057994605
0.010392611
0.0019228438
0.001916585
0.005081727
0.041410254
0.086428388
0.12082161
0.15451802
0.16024181
0.15336912
0.11183488
0.065362497
0.019242926
0.0020501129
0.0019151444
0.0088530865
0.046005389
0.084093417
0.11575809
0.14057647
0.14570695
0.13001207
0.10070842
0.066341415
0.025320248
0.0025058337
0.0019140456
0.0120845
0.047506111
0.080242754
0.10518713
0.12143692
0.12497953
0.11477835
0.093882122
0.065138978
0.029048016
0.003475267
0.0019242053
0.014892129
0.047643937
0.075762802
0.095621765
0.10709491
0.10948432
0.10256132
0.086918383
0.062975714
0.031295954
0.0049042597
0.0019798246
0.017252327
0.047144428
0.071402845
0.087749192
0.096641578
0.098437864
0.093198959
0.080719039
0.060500925
0.032638572
0.0065336249
0.0021171446
0.019230953
0.046341911
0.067488906
0.081382223
0.088750823
0.090220505
0.085925065
0.075463685
0.058061839
0.033432275
0.0080935914
0.002395179
0.020895153
0.045425336
0.064087033
0.076202543
0.082569962
0.083835865
0.080137868
0.071064379
0.055809079
0.033893296
0.0095769594
0.0028937034
0.022228914
0.044499159
0.061165752
0.071929041
0.077574424
0.078697722
0.07542095
0.067374752
0.053794194
0.034130441
0.011104039
0.0036883552
0.023266419
0.043623091
0.05866149
0.068351338
0.073443882
0.074459338
0.071501688
0.06425384
0.052025824
0.034219045
0.012582813
0.0047889701
0.024087335
0.042828956
0.056511941
0.065346931
0.07001344
0.070946922
0.068232557
0.061608566
0.050481865
0.03423076
0.0139465
0.0061374504
0.024801539
0.04218256
0.054799477
0.063033461
0.067427249
0.068310736
0.065747311
0.059539883
0.049231134
0.034267053
0.015110121
0.00199713
0.0019971063
0.0019971058
0.0019971054
0.0019971044
0.001997104
0.0019971043
0.0019971052
0.0019971054
0.0019971067
0.0019971748
0.0019706968
0.0019704537
0.0019703697
0.0019703504
0.0019703462
0.0019703421
0.0019703383
0.0019703461
0.0019703698
0.0019704979
0.0019733385
0.0019497445
0.0019495477
0.0019494158
0.0019493887
0.0019494046
0.0019494016
0.0019493804
0.0019493789
0.0019494184
0.0019495238
0.0019519464
0.0019313339
0.0019311612
0.0019310824
0.001931184
0.0019313428
0.0019313558
0.0019312444
0.0019310962
0.0019310444
0.0019310426
0.0019332362
0.0019153153
0.0019152466
0.0019155186
0.0019163577
0.0019172465
0.0019172159
0.0019168781
0.0019158222
0.0019152649
0.0019149788
0.0019168988
0.0019020274
0.0019026318
0.0019045409
0.0019106723
0.0019169206
0.00191586
0.0019161421
0.001906063
0.0019033654
0.0019018559
0.0019031733
0.0018928528
0.0018963272
0.001906999
0.0019452479
0.0023127979
0.0025797959
0.0020581769
0.0018968075
0.0019009594
0.0018935798
0.0018930315
0.0018905161
0.0019059442
0.0021136837
0.010625108
0.030799677
0.036359007
0.021274322
0.0040412222
0.0019116433
0.0018947227
0.0018886641
0.0018989683
0.0019811943
0.015441855
0.059463673
0.094812958
0.10273012
0.080068492
0.036870732
0.0040085302
0.0019044092
0.0018931736
0.0019131925
0.0066310774
0.049273313
0.10153048
0.13727088
0.14511953
0.12255604
0.076993285
0.023776389
0.0021246065
0.001907053
0.002043411
0.0200034
0.070079464
0.1145881
0.14769388
0.15878337
0.14090405
0.094035037
0.044695488
0.0053116047
0.0019246855
0.0028265059
0.031085995
0.075187763
0.10919087
0.13854511
0.15317642
0.13561254
0.093965773
0.05444337
0.011860823
0.0019712608
0.0050040484
0.036967245
0.074616948
0.10386481
0.12477532
0.12992493
0.11582702
0.090467027
0.057198985
0.017664975
0.0021816332
0.0077571964
0.039656864
0.072234622
0.096366751
0.11139531
0.1147096
0.10528857
0.085596999
0.057278057
0.021751168
0.0027664425
0.010208788
0.040762195
0.069036734
0.088874886
0.10016233
0.1025023
0.095716603
0.080222241
0.056207036
0.024658491
0.0038428442
0.01226218
0.041091849
0.065694318
0.082310046
0.091331111
0.093147472
0.087835604
0.075166301
0.054644001
0.02666944
0.0053036126
0.014206005
0.041005832
0.062561635
0.076802168
0.084372035
0.085879523
0.081461108
0.070727749
0.052947689
0.028070513
0.0069364826
0.016042552
0.040689207
0.059762984
0.072223389
0.078793063
0.080097072
0.076275762
0.066928711
0.051294694
0.029049966
0.0086273682
0.017659939
0.040254866
0.057318179
0.068400811
0.074227171
0.075384045
0.071998134
0.063701669
0.049764662
0.029726772
0.010293552
0.019045439
0.039789382
0.055206977
0.065177223
0.070424166
0.071468026
0.068417637
0.060953603
0.048400024
0.03020203
0.011857051
0.020220631
0.039370706
0.0533857
0.062452775
0.067245122
0.068201534
0.065411614
0.058609781
0.047208854
0.030584878
0.013274703
0.021337643
0.039074381
0.051925133
0.060330092
0.064817659
0.065718019
0.063097796
0.056757727
0.046250907
0.031025209
0.01456936
0.0019972048
0.0019971066
0.0019971061
0.0019971057
0.0019971055
0.0019971054
0.0019971055
0.0019971056
0.0019971055
0.0019971101
0.0019973256
0.0019734002
0.0019705304
0.0019704139
0.0019703819
0.001970381
0.0019703809
0.0019703816
0.0019703823
0.0019704203
0.001970599
0.0019734088
0.001952073
0.0019496274
0.0019494946
0.0019494442
0.0019494445
0.001949444
0.001949444
0.0019494499
0.0019495016
0.0019496128
0.0019520218
0.0019334185
0.0019312179
0.0019311442
0.0019311581
0.0019312317
0.0019312437
0.0019311957
0.0019311366
0.0019311207
0.0019311725
0.0019333518
0.0019171018
0.0019152247
0.0019153709
0.0019157236
0.0019162143
0.0019163518
0.0019159619
0.0019155293
0.0019152209
0.0019151625
0.0019170748
0.0019032476
0.0019021815
0.0019033655
0.0019051651
0.0019082261
0.0019093057
0.0019062305
0.0019043201
0.0019025907
0.0019019772
0.0019033666
0.0018927295
0.0018940338
0.0019000377
0.0019072884
0.0019069251
0.0019166832
0.0018969523
0.0019073815
0.0018961086
0.0018930689
0.0018929932
0.0018875334
0.0018955239
0.0019038757
0.0024310027
0.0066777739
0.0088859774
0.0040359684
0.0019904576
0.0019050845
0.0018914103
0.0018877777
0.0018903781
0.0019096813
0.0027718552
0.022440811
0.047844961
0.054032982
0.036818006
0.0091286916
0.0019676879
0.0019016449
0.0018901115
0.0019022002
0.0021154598
0.018798846
0.059382915
0.089264665
0.0958912
0.076899082
0.03923109
0.0057181154
0.0019190398
0.0019003411
0.0019173442
0.0052633245
0.039395644
0.079064822
0.10408183
0.10969702
0.093929116
0.060921343
0.018814632
0.0020859806
0.0019131733
0.0019296965
0.012030987
0.050027937
0.082337885
0.10181634
0.11167126
0.093872751
0.067948106
0.030386038
0.0032104036
0.0019201763
0.0019812244
0.018204133
0.053527501
0.080657979
0.097009954
0.10057876
0.090387631
0.068607106
0.036617166
0.00603718
0.0019222828
0.0021623075
0.022673831
0.054138357
0.077389403
0.090926495
0.093769612
0.085529115
0.067137262
0.03944167
0.0092516555
0.0019346103
0.0026272355
0.025615237
0.053491421
0.073398943
0.084544937
0.086818072
0.080162385
0.064715573
0.040629632
0.011914834
0.002000263
0.0035050826
0.027556923
0.052277046
0.06941158
0.07875395
0.080628744
0.075112785
0.062003073
0.04099956
0.014196112
0.00219341
0.0047921957
0.028895334
0.050863356
0.065774653
0.073786075
0.075381949
0.070679906
0.059364255
0.040932818
0.0163731
0.0026219456
0.0062851315
0.029817674
0.049441512
0.062583775
0.069596523
0.07098998
0.066885918
0.056953249
0.040629485
0.018288477
0.003349624
0.0078778938
0.030444573
0.048104106
0.059831856
0.066068448
0.067306658
0.063663273
0.054818392
0.040209789
0.019878926
0.0043615084
0.0094706287
0.030879908
0.046906719
0.057472274
0.063077406
0.064191175
0.06091895
0.052965451
0.039765067
0.021172852
0.0055917348
0.010978339
0.031243829
0.045867913
0.055447734
0.060536917
0.061550433
0.058578176
0.051364478
0.039378956
0.022243591
0.0069427469
0.012416089
0.031691222
0.045042186
0.053833388
0.058542466
0.059484917
0.056728392
0.05007883
0.039123413
0.02335167
0.0083587215
0.0019974276
0.0019971289
0.0019971059
0.0019971064
0.0019971061
0.0019971061
0.0019971064
0.0019971063
0.0019971065
0.0019971591
0.0019735545
0.0019707119
0.0019705157
0.0019704438
0.0019704221
0.0019704244
0.0019704413
0.0019704593
0.0019705156
0.0019733147
0.0019522031
0.001949727
0.0019496246
0.0019495468
0.0019495173
0.00194952
0.0019495483
0.0019495731
0.0019495947
0.0019520018
0.0019335865
0.0019313118
0.0019312403
0.001931215
0.0019312206
0.0019312281
0.0019312444
0.0019312299
0.0019311919
0.0019333272
0.0019173376
0.001915327
0.0019152947
0.0019154309
0.0019155816
0.0019156251
0.0019155422
0.0019153606
0.0019152014
0.0019169418
0.0019035145
0.0019021086
0.0019023852
0.0019032143
0.0019040931
0.0019041605
0.0019037086
0.0019027527
0.001902012
0.0019030102
0.0018928888
0.0018930269
0.0018946874
0.0018984215
0.0019065584
0.0019032209
0.0019013261
0.0018963208
0.001893251
0.001892344
0.0018870973
0.0018909227
0.0018978394
0.0019068548
0.0019600078
0.0019767707
0.0019118016
0.0019053562
0.0018925223
0.0018869943
0.0018880058
0.0018996624
0.0019109717
0.002286511
0.0070070451
0.0090748089
0.0039873339
0.0019675735
0.0019060761
0.0018901272
0.0018956898
0.0019198855
0.0023214328
0.013471944
0.031923283
0.036580773
0.023664907
0.0056956452
0.0019439228
0.0019030441
0.0019055812
0.0019508354
0.007400352
0.032304292
0.053269389
0.057870181
0.04453427
0.018742007
0.0025633233
0.0019201309
0.001910634
0.0022057223
0.015938391
0.043583847
0.061533992
0.065225266
0.054283987
0.030290784
0.00565572
0.0019482622
0.0019087938
0.0031400924
0.022731462
0.048030246
0.063105716
0.066203497
0.057049765
0.036526866
0.01002405
0.00205712
0.0019040453
0.0050746721
0.027027104
0.049343947
0.062343708
0.065007234
0.057140775
0.039354054
0.014139646
0.002393091
0.0019021383
0.0074919718
0.029576862
0.049307699
0.060563142
0.06285189
0.056082728
0.040548773
0.017601673
0.0032207172
0.0019076115
0.0096887899
0.031158855
0.04861988
0.0584098
0.060385649
0.054532369
0.040928805
0.020287889
0.0047151676
0.0019513411
0.011653182
0.032163421
0.047650593
0.056232314
0.057955046
0.052848442
0.040871328
0.022287397
0.00663423
0.0020700412
0.013582885
0.03277993
0.046595876
0.054189813
0.055710232
0.051206624
0.040575487
0.023803335
0.0085668868
0.0023284732
0.015413675
0.033131946
0.045556561
0.05234455
0.05370256
0.049686121
0.040162278
0.024961686
0.010403151
0.0028405002
0.017029932
0.033330686
0.044598928
0.050718428
0.05194065
0.048329503
0.039723492
0.025870664
0.01211821
0.0036786739
0.018407838
0.033500968
0.043765356
0.049298557
0.050402313
0.047144985
0.039342129
0.026647256
0.013675544
0.0048491251
0.019731937
0.033762428
0.043112418
0.048149791
0.049155857
0.046192263
0.039090085
0.027460556
0.015103515
0.0019973596
0.0019971336
0.0019971085
0.0019971075
0.0019971075
0.0019971079
0.001997111
0.0019971588
0.0019973325
0.0019734626
0.0019707415
0.0019705748
0.0019705333
0.0019705255
0.0019705712
0.0019706527
0.0019733371
0.0019735133
0.0019520807
0.001949748
0.0019496669
0.0019496544
0.0019496456
0.0019496782
0.0019497259
0.0019520391
0.0019521478
0.0019334212
0.0019313528
0.0019312791
0.0019312972
0.0019312888
0.0019312971
0.0019313617
0.0019333773
0.0019334966
0.0019171414
0.0019153938
0.0019153073
0.0019153814
0.0019153751
0.001915336
0.001915431
0.0019170477
0.0019171853
0.0019033208
0.001902182
0.0019021617
0.001902464
0.0019025234
0.0019022809
0.001902301
0.0019031974
0.0019033061
0.0018926795
0.0018929781
0.0018934434
0.0018945321
0.0018949892
0.0018940305
0.0018934523
0.0018925883
0.001892465
0.0018868509
0.0018903247
0.0018930639
0.0018961086
0.0018973452
0.0018951609
0.0018918192
0.0018872833
0.0018861287
0.0018878084
0.0018977798
0.0019085037
0.001905893
0.0019125541
0.0019055879
0.0019020086
0.0018904228
0.0018861494
0.0018956394
0.0019160238
0.0019597718
0.002446405
0.0027826204
0.0021217222
0.0019192875
0.0019032243
0.0018926739
0.0019057711
0.0019335979
0.0028113663
0.008403442
0.010341574
0.0052602828
0.0020832717
0.0019201544
0.0019017044
0.0019109592
0.0020830839
0.0068300122
0.016455129
0.019148586
0.011757217
0.0031850168
0.0019477672
0.0019067472
0.0019088929
0.0026521985
0.01131654
0.022475903
0.02520609
0.017512555
0.0059712992
0.0020549201
0.0019055347
0.001904233
0.0039891907
0.015221737
0.026374079
0.028927319
0.021594729
0.009169069
0.002386714
0.0019010805
0.0019014207
0.0059578298
0.018372576
0.028865906
0.031174577
0.024508704
0.011827915
0.0032057569
0.0018995899
0.0019198932
0.0080234319
0.020877691
0.030462903
0.032519817
0.026529169
0.014100613
0.0046888731
0.0019079593
0.001986475
0.0098633628
0.022788801
0.031480378
0.033317405
0.027940604
0.016274831
0.0066008024
0.0019499785
0.0021524454
0.011586652
0.024232712
0.032121432
0.033783499
0.028929295
0.018194322
0.0085300903
0.0020615604
0.002522074
0.013329479
0.025310297
0.03251268
0.034026461
0.02961559
0.019791961
0.010364707
0.0023091094
0.0031739406
0.014952709
0.026150491
0.032743569
0.034121045
0.030100064
0.021095901
0.012079745
0.0027759238
0.0040932724
0.016409604
0.026855165
0.03289437
0.034137745
0.030491577
0.022170994
0.01363874
0.0035470106
0.0052717553
0.017802366
0.027623522
0.033084978
0.034178138
0.030938658
0.02328344
0.015068274
0.0046590332
0.00199739
0.0019972651
0.0019971626
0.001997139
0.001997175
0.001997326
0.0019736264
0.0019734412
0.0019733665
0.0019707787
0.00197341
0.0019734621
0.0019522584
0.0019521013
0.0019520574
0.0019497612
0.0019521111
0.0019521327
0.0019336138
0.001933483
0.0019334332
0.0019313572
0.0019335029
0.0019335492
0.0019173461
0.0019173098
0.001917256
0.0019153622
0.0019172857
0.0019173834
0.0019035137
0.0019037633
0.0019037523
0.0019020186
0.0019036132
0.0019037378
0.0018928006
0.0018937691
0.0018939607
0.0018924657
0.0018934406
0.0018933653
0.0018866737
0.0018893681
0.0018902511
0.0018889566
0.0018890446
0.0018881815
0.0018868979
0.0018932204