/*--------------------------------*- C++ -*----------------------------------*\
  =========                 |
  \\      /  F ield         | OpenFOAM: The Open Source CFD Toolbox
   \\    /   O peration     | Website:  https://openfoam.org
    \\  /    A nd           | Version:  8
     \\/     M anipulation  |
\*---------------------------------------------------------------------------*/
FoamFile
{
    version     2.0;
    format      ascii;
    class       volScalarField;
    location    "100";
    object      omega;
}
// * * * * * * * * * * * * * * * * * * * * * * * * * * * * * * * * * * * * * //

dimensions      [0 0 -1 0 0 0 0];

internalField   nonuniform List<scalar> 
72028
(
9.8512157
9.8563756
8.6191621
8.6176655
7.6297187
7.6278094
6.8477006
6.8461247
6.2157563
6.214504
5.6979411
5.6970774
5.2710489
5.2707512
4.9205429
4.9213016
4.6363118
4.6389081
4.4070431
4.4126169
4.2150674
4.2234196
4.0409144
4.0495444
3.8756226
3.8822389
3.7202128
3.7249857
3.5764881
3.5805243
3.4440927
3.4501676
3.3237706
3.333793
3.2268927
3.2531483
3.170002
3.2286943
3.1898286
3.2628907
3.2907839
3.3433657
3.4263742
3.4380534
9.8530107
9.8429688
9.840616
9.8402194
9.8408658
9.8448677
9.8566023
8.6162739
8.4795194
8.4746896
8.473026
8.4762595
8.612873
8.6164599
7.6280938
7.523381
7.521083
7.5197522
7.5215977
7.6271372
7.6277898
6.8465169
6.7614113
6.759651
6.7582931
6.7599251
6.8456854
6.8464147
6.2149997
6.1440859
6.142101
6.1405133
6.1425224
6.2139247
6.2150992
5.6976348
5.6377288
5.6352599
5.6333429
5.6359729
5.6961514
5.697883
5.2712826
5.2210759
5.218477
5.2161565
5.2193015
5.2694234
5.2716609
4.9214183
4.8816309
4.8804333
4.8779198
4.8807049
4.9198189
4.9218308
4.6380365
4.6123907
4.6176103
4.614852
4.6153996
4.638578
4.6380851
4.4096839
4.4010092
4.4231908
4.4243533
4.407408
4.4154316
4.4089601
4.2182578
4.2328426
4.2921939
4.3475066
4.2309923
4.2307303
4.2164747
4.0435867
4.07318
4.4511588
4.6348175
4.2322425
4.0600642
4.0412982
3.8767299
4.0449081
4.7892599
5.1677175
4.3887458
3.9016479
3.8747024
3.7201601
4.1083742
5.2378947
5.6607374
4.6654657
3.7631187
3.7181981
3.5763465
4.2856492
5.587276
5.8794068
5.0280457
3.7008284
3.5736039
3.4469515
4.5608817
5.7193167
5.8929519
5.2989887
3.7951558
3.4405988
3.3315587
4.8234171
5.6700693
5.7605201
5.3930444
4.0500782
3.3194243
3.2691805
4.9641425
5.5038501
5.5435622
5.3340634
4.3183605
3.2138405
3.2763323
4.9555882
5.2764093
5.2950322
5.1773522
4.4789254
3.1660606
3.3766583
4.8407192
5.0256689
5.0413021
4.9689984
4.5108889
3.1904617
3.5383238
4.6674169
4.7800059
4.7895592
4.7444718
4.4482781
3.2930219
3.6537397
4.4725495
4.543464
4.5472059
4.5247713
4.3283891
3.4295301
9.8498503
9.8401366
9.8395905
9.8395704
9.8395748
9.8395729
9.8396325
9.8408379
9.8534423
8.6140562
8.4717941
8.4674763
8.4656637
8.4653414
8.4663015
8.4694344
8.4782902
8.6151364
7.6268541
7.5194816
7.5165085
7.5142105
7.5136666
7.51511
7.5182351
7.5229516
7.6269212
6.8453207
6.7584269
6.7556807
6.7533217
6.7526684
6.75427
6.7572385
6.7610589
6.8452551
6.2137562
6.1408219
6.1367033
6.1333113
6.1323734
6.1347018
6.1388685
6.1437654
6.2137528
5.6964228
5.6337089
5.6276964
5.6227816
5.6214572
5.6248223
5.6307207
5.6375314
5.6964744
5.2704014
5.2164769
5.2100697
5.204443
5.2031848
5.2068334
5.2131822
5.2213292
5.2702218
4.921589
4.8786934
4.879624
4.8811435
4.8828337
4.8787942
4.8778895
4.883221
4.9203465
4.6399659
4.6172322
4.6338792
4.6663054
4.7423432
4.6169962
4.6238244
4.6161608
4.636661
4.4141552
4.4247099
4.7437817
6.1079106
6.579854
5.3683453
4.4501078
4.4099044
4.4079087
4.2251972
4.3241663
6.3359238
8.1089343
8.3789883
7.5064054
4.9587728
4.2450697
4.2160663
4.0519013
4.668249
7.5095028
8.3325231
8.4456642
8.0712061
6.2919359
4.0963426
4.0413519
3.8851999
5.4717268
7.5781972
8.0192336
8.0938993
7.858858
6.9716389
4.1153071
3.8745402
3.7291771
6.0937411
7.3287177
7.6518518
7.7066476
7.5287762
6.9575806
4.2891833
3.7174665
3.5916652
6.2479957
7.0133059
7.2415979
7.276922
7.1553879
6.7459897
4.6135517
3.5726718
3.482187
6.1129668
6.651622
6.7960735
6.8163695
6.7424159
6.4707037
4.995628
3.4403369
3.4645249
5.8925484
6.263554
6.3465216
6.3561306
6.3165535
6.147946
5.2356867
3.321316
3.6196706
5.6428957
5.876086
5.9162095
5.9182883
5.9024128
5.8074239
5.2727188
3.244467
3.885969
5.3754537
5.5072248
5.517435
5.5143212
5.5149212
5.4706585
5.1584126
3.2469179
4.1043041
5.0999393
5.1650469
5.1548135
5.1484202
5.1601114
5.1500168
4.964803
3.3600534
4.1879967
4.8304701
4.8520548
4.8284771
4.8202581
4.8387559
4.8522277
4.7493809
3.5502518
4.1585184
4.5766285
4.5679304
4.5362575
4.5272313
4.549352
4.5786752
4.534214
3.6928495
9.8530103
9.8401354
9.8395564
9.8395413
9.8395336
9.8395322
9.8395362
9.8395481
9.8395776
9.8411067
9.8509352
8.6163296
8.471784
8.4659436
8.4634078
8.4623977
8.462217
8.4627682
8.4643664
8.4683002
8.479333
8.6174692
7.6282171
7.519484
7.5146925
7.5105401
7.5082462
7.5077608
7.5091355
7.5123246
7.5172105
7.5228607
7.6290857
6.8467103
6.758417
6.7538652
6.7485699
6.7447814
6.743901
6.746304
6.7511124
6.7562971
6.7607563
6.8472863
6.2152862
6.1407738
6.1341498
6.1264033
6.1204896
6.1190237
6.1229082
6.130198
6.1376494
6.14348
6.2156179
5.697914
5.6336416
5.6241129
5.6130921
5.6050141
5.602787
5.6082114
5.618448
5.6291367
5.637366
5.6980977
5.2714535
5.2165422
5.206216
5.1943306
5.1931621
5.1965158
5.1929543
5.1999753
5.2116251
5.2211407
5.2714011
4.9214961
4.878696
4.8794285
4.8441619
4.9204507
5.0084059
4.8732167
4.8815926
4.8777448
4.8823657
4.9207945
4.6381149
4.6171922
4.6292669
5.915289
8.352157
8.799718
7.3934815
4.8702904
4.634594
4.6137657
4.635765
4.4097064
4.4247456
5.5544308
9.1373796
10.230861
10.406762
9.8410158
7.7560026
4.5190282
4.4045203
4.404946
4.2182628
4.325248
7.8650203
9.485367
10.090974
10.214477
9.8364448
8.9460176
5.5152645
4.2319801
4.2111779
4.0435812
4.6746479
8.2279681
9.0476906
9.4868106
9.577086
9.291672
8.7033628
7.0245413
4.0609115
4.0360727
3.8767078
5.4853275
7.9499317
8.5506086
8.8939266
8.967075
8.7395752
8.284102
7.3576362
3.9989891
3.8706498
3.7201301
6.1041495
7.6044695
8.0388037
8.2614274
8.3037581
8.1624948
7.8473094
7.191035
4.0430467
3.715432
3.5763238
6.2541553
7.2141296
7.4870343
7.595634
7.6118919
7.5475454
7.372232
6.9205571
4.217635
3.5717931
3.4468257
6.1176073
6.7880363
6.929525
6.9574246
6.9568293
6.9442637
6.8752853
6.5900238
4.504994
3.4391946
3.3321079
5.8967257
6.3505559
6.4003011
6.3785591
6.3684357
6.3864823
6.3870028
6.2248819
4.8070114
3.316528
3.2708438
5.6462848
5.9262678
5.9166935
5.8671396
5.8521977
5.886709
5.9289265
5.8550116
4.9779956
3.2091386
3.2797668
5.3782257
5.5306135
5.483892
5.4201353
5.4031203
5.4455576
5.5113333
5.4989995
4.9811434
3.1303313
3.3821417
5.1019258
5.1697435
5.1004026
5.030375
5.0127972
5.05832
5.1365334
5.1655073
4.8648563
3.1185312
3.5442875
4.8319049
4.8439536
4.7614036
4.6897245
4.6724229
4.7182629
4.8021756
4.8581444
4.6870283
3.1984238
3.658474
4.5778001
4.5511613
4.4629955
4.3935022
4.3771908
4.4210431
4.5050829
4.5777413
4.492857
3.3497293
9.8429711
9.8395904
9.8395403
9.8395235
9.8395152
9.8395132
9.8395169
9.8395285
9.8395511
9.8396982
9.8482427
8.4795596
8.4674667
8.4633741
8.4615874
8.460768
8.460609
8.4610847
8.4623121
8.4649057
8.4703941
8.6145512
7.523405
7.5164578
7.5104714
7.5062835
7.5038355
7.5033123
7.5048138
7.5081444
7.5131865
7.5179711
7.6275822
6.7613683
6.7555487
6.7484487
6.7412678
6.7363819
6.735278
6.7383686
6.7446439
6.7521325
6.756658
6.846077
6.1439497
6.1364647
6.1262269
6.1147455
6.1062256
6.10432
6.1096753
6.1203328
6.1316406
6.1386922
6.2144772
5.6374897
5.6273913
5.6129045
5.5962654
5.5838689
5.5816627
5.5877409
5.6048015
5.6204833
5.6312051
5.6971087
5.2207925
5.2097974
5.1942042
5.1804219
5.1468759
5.1460839
5.1251657
5.1915926
5.2022483
5.2139149
5.2711824
4.8813145
4.8794551
4.8443136
5.3773428
7.6609653
8.166407
6.5736802
4.9234624
4.8852695
4.8766513
4.9231152
4.6121228
4.6338943
5.9221509
9.8578068
11.219033
11.438772
10.731672
8.3050635
4.7389132
4.6153837
4.6439099
4.400972
4.7477462
9.145003
10.892037
11.805689
12.004064
11.406642
10.200615
6.8989848
4.4056854
4.4224504
4.2331738
6.3553324
9.4914908
10.615475
11.336022
11.644665
11.090037
10.065759
8.604534
4.455541
4.2365547
4.0746237
7.5237871
9.0528257
9.9011488
10.529997
10.820489
10.346258
9.4634715
8.5324096
5.0105443
4.0618076
4.0493144
7.587411
8.5544583
9.2131597
9.7905829
9.9341196
9.5082483
8.8742886
8.1573314
5.8451769
3.8988754
4.1163348
7.3364508
8.0414407
8.4462395
8.7223921
8.7817504
8.5923266
8.2483082
7.7539925
6.2834824
3.7487714
4.2972982
7.018536
7.4889285
7.6708433
7.7528738
7.7656195
7.7128491
7.5881922
7.3102849
6.3299159
3.6489563
4.5750891
6.6555011
6.9310104
6.9634397
6.9396773
6.9292331
6.9467143
6.9535969
6.8401626
6.1650043
3.6208497
4.8361796
6.2668022
6.401566
6.345769
6.2696389
6.2486917
6.2993819
6.3768418
6.3713279
5.9284612
3.725101
4.9738164
5.8788361
5.9178196
5.8143685
5.7152618
5.6903335
5.7547811
5.8664777
5.9263101
5.6616951
3.930568
4.9621883
5.5095371
5.4849072
5.3582059
5.2516152
5.2259247
5.2942671
5.419851
5.5173052
5.3826381
4.1320877
4.845265
5.1670081
5.1013198
4.965247
4.8590533
4.8341286
4.9015093
5.0300919
5.1480911
5.0994674
4.2482266
4.6707255
4.8537462
4.7622294
4.6247222
4.5228141
4.4993359
4.5634625
4.6892607
4.8172978
4.8257897
4.2573013
4.4754076
4.5694019
4.4637345
4.3315796
4.2374918
4.216121
4.2748858
4.3928039
4.5220839
4.569197
4.1827501
9.851192
9.8406183
9.8395695
9.8395309
9.8395138
9.8395043
9.8395012
9.8395055
9.8395172
9.8395404
9.8396098
9.8424962
8.6191503
8.4747388
8.4656486
8.4623183
8.4607229
8.4599235
8.4597593
8.4602302
8.4613819
8.463599
8.4688881
8.6116679
7.6297406
7.5211155
7.5141503
7.5081056
7.503754
7.5011083
7.5005339
7.5021705
7.5057108
7.5108408
7.5176606
7.6268976
6.8477441
6.7595938
6.7531625
6.744546
6.7362475
6.7305624
6.7292599
6.7328819
6.7401504
6.74895
6.7566257
6.8453415
6.215846
6.1418932
6.1330231
6.1201499
6.1060312
6.0964292
6.0939493
6.1002275
6.1128159
6.1268979
6.1378737
6.2133612
5.6980332
5.6349092
5.6224115
5.6046405
5.5836674
5.5867285
5.5812871
5.5793572
5.5938365
5.6137932
5.629214
5.6955432
5.2711311
5.2180997
5.2041288
5.1934122
5.1467211
5.2753488
5.3652048
5.169967
5.1824773
5.1952407
5.2114963
5.2694097
4.9206355
4.8801318
4.8815579
4.9210831
7.6656242
10.131589
10.545516
9.2039163
5.7273993
4.8349754
4.8792014
4.9219579
4.6364893
4.6175495
4.6680901
8.3650627
11.225986
12.290213
12.487544
11.870393
10.20925
5.6715624
4.6304054
4.6454255
4.4073246
4.4234985
6.1241037
10.243842
11.817492
12.889748
13.074717
12.430093
11.074195
8.8874633
4.570074
4.4287392
4.2154513
4.2942166
8.1255273
10.105736
11.349484
12.716612
12.995807
12.411133
10.762931
9.3895352
5.456627
4.2454084
4.0413757
4.4575205
8.3451792
9.5006991
10.544032
11.932591
12.586791
11.75167
10.01997
8.9775672
6.7229222
4.0839209
3.8760912
4.8008613
8.0299388
8.9046695
9.8003853
10.687902
10.842456
10.27901
9.3039082
8.4933498
7.1432304
3.9795302
3.720673
5.2509432
7.6602226
8.2691179
8.7281752
9.0879623
9.1586871
8.9220793
8.4912392
7.9954076
7.065756
3.9891061
3.5769188
5.5981102
7.2482756
7.6012736
7.7566469
7.8383409
7.8508849
7.7981007
7.6816977
7.4586376
6.8171219
4.2005528
3.4444971
5.7268163
6.8015556
6.9617617
6.9423798
6.8922833
6.8765631
6.9102772
6.9546541
6.9128491
6.5089506
4.5003735
3.3242567
5.6756435
6.3510832
6.3820504
6.2717113
6.1642959
6.1369167
6.2071059
6.3270114
6.3917595
6.1703844
4.7317177
3.2276771
5.5084711
5.9200376
5.8700462
5.7169294
5.5886555
5.5576562
5.6403156
5.7912805
5.9138797
5.8198823
4.8343549
3.1713782
5.2804433
5.520705
5.4226085
5.2530026
5.1211394
5.0901751
5.1742458
5.3338922
5.485077
5.4750123
4.8196638
3.1918007
5.0293609
5.1576597
5.0325123
4.8602347
4.7326882
4.7032992
4.783936
4.9413146
5.1042967
5.1479247
4.7243134
3.2930146
4.7831759
4.8309773
4.6915903
4.5238342
4.4040209
4.3767952
4.4520182
4.6019623
4.7671665
4.8459359
4.5815272
3.4279653
4.5463052
4.5384612
4.3951377
4.2383784
4.1296871
4.105259
4.1730616
4.310673
4.469894
4.5701437
4.4130271
9.8563853
9.8402229
9.8395734
9.839529
9.8395102
9.8395009
9.8394976
9.8395023
9.8395145
9.8395367
9.8396077
9.8414467
8.6177111
8.4731176
8.4653495
8.4621396
8.460555
8.4597743
8.4596061
8.4600719
8.4612176
8.4633573
8.4682969
8.4808719
7.6279113
7.51986
7.5136561
7.5076301
7.5032187
7.5005412
7.4999459
7.5016091
7.5052119
7.5103405
7.5170144
7.5230709
6.8462614
6.7583419
6.7525856
6.743685
6.7351225
6.7292506
6.7278918
6.7316484
6.7391576
6.7481995
6.7560045
6.7608041
6.2146701
6.140426
6.1321835
6.11871
6.104093
6.0939166
6.0914729
6.0981837
6.1110434
6.125776
6.1370899
6.1434331
5.6971293
5.6331254
5.6212162
5.6024474
5.5814458
5.581246
5.5783526
5.5772376
5.5911363
5.6122235
5.6282652
5.6371136
5.2708228
5.2159246
5.2030486
5.1960668
5.1461598
5.3657159
5.501384
5.2117658
5.1760837
5.1950881
5.210704
5.2203226
4.9213188
4.8777806
4.8829575
5.0100252
8.1737153
10.55052
10.927278
9.7037058
6.1681119
4.8490209
4.8797317
4.880222
4.639046
4.6149664
4.7441164
8.8120472
11.451235
12.497003
12.690667
12.085674
10.496556
6.1032934
4.6344499
4.6093132
4.4127978
4.4247672
6.5903551
10.425462
12.026456
13.096373
13.237235
12.664489
11.264034
9.1888316
4.6754432
4.3945048
4.2236801
4.3485349
8.3927994
10.241375
11.684199
13.043468
12.980239
12.855137
10.950446
9.5244687
5.8470585
4.218052
4.0497995
4.6355452
8.4597016
9.6006778
10.863441
12.645846
12.497256
12.559097
10.456136
9.0689186
7.0518583
4.0454673
3.8824653
5.1673046
8.1073531
8.9865775
9.9585638
10.862422
10.958538
10.485923
9.4185028
8.5649677
7.3279021
3.9493455
3.7252491
5.6611357
7.7187478
8.3184408
8.7960492
9.1681422
9.234294
9.0041651
8.549016
8.0447859
7.1777309
3.9282999
3.5807939
5.8808746
7.2871468
7.6228326
7.7747841
7.8561982
7.8684535
7.8178528
7.7012463
7.4861176
6.896046
3.9972297
3.4504054
5.8949545
6.8248206
6.9651534
6.9356305
6.8800232
6.863416
6.9010436
6.9526817
6.9239431
6.5659428
4.1709884
3.3339588
5.7629488
6.3631081
6.3749348
6.2534606
6.1394118
6.1108389
6.1854008
6.3140424
6.3923381
6.2078936
4.4098233
3.2526387
5.5460164
5.9240943
5.8574012
5.6940612
5.559579
5.5274068
5.6141061
5.7732672
5.9082147
5.8408628
4.6071683
3.2271611
5.2974777
5.5191987
5.4073841
5.2289431
5.0917239
5.0597263
5.1472653
5.3140407
5.4758475
5.4847341
4.6887035
3.2600402
5.043234
5.1525555
5.0163638
4.8366412
4.7045869
4.6743202
4.757868
4.9212867
5.0931644
5.1514143
4.6556227
3.3393149
4.7920509
4.8238095
4.6754585
4.5014723
4.3778914
4.3499285
4.4275791
4.5825982
4.7552003
4.8456614
4.5449201
3.4334215
4.5496537
4.5303166
4.3798016
4.2179572
4.1062021
4.0811718
4.1509479
4.2927097
4.4579629
4.5673036
4.3811805
9.84087
9.8395712
9.8395332
9.8395151
9.839504
9.8395009
9.8395054
9.8395187
9.8395417
9.8396187
9.8431974
8.4763634
8.4663425
8.4627447
8.4610927
8.4602754
8.4601023
8.4605699
8.4617504
8.4640609
8.469922
8.6124232
7.521746
7.5151599
7.509098
7.5048179
7.5022456
7.5016761
7.503255
7.5067163
7.5117575
7.5183496
7.6269235
6.7600447
6.7542865
6.7462357
6.7383662
6.7329924
6.7317566
6.7351646
6.7420605
6.7502913
6.7570835
6.8451852
6.1425198
6.1346555
6.1228099
6.1096699
6.1003635
6.098323
6.1041039
6.1160509
6.1289442
6.1385596
6.2130178
5.6358249
5.6247563
5.6081373
5.5877584
5.579493
5.5773722
5.5816192
5.5983774
5.6166926
5.6303692
5.6950132
5.2191317
5.2068815
5.1930717
5.1245686
5.1702299
5.2119175
5.1343001
5.186579
5.1986434
5.2128821
5.2685264
4.8806647
4.8791363
4.873785
6.5805892
9.211009
9.7065801
8.1647586
5.2107859
4.8824584
4.8776827
4.9201202
4.6156011
4.6177824
7.4026834
10.746147
11.883291
12.091944
11.454871
9.5631038
5.1079279
4.6260111
4.6415658
4.4077846
5.3701369
9.8586251
11.434351
12.456087
12.67754
12.02356
10.742681
8.1923855
4.4511294
4.4224884
4.2313569
7.5105557
9.8595312
11.1358
12.468341
12.886681
12.195264
10.485068
9.1266571
4.920588
4.2368197
4.230196
8.0818232
9.3167142
10.387531
11.820474
12.608589
11.636318
9.7903692
8.8149852
6.0515175
4.0736315
4.3820437
7.8708706
8.7617728
9.5360958
10.306234
10.499065
9.9497117
9.1294593
8.3690867
6.7338058
3.9312319
4.6533177
7.5410506
8.1805107
8.6104803
8.9366313
9.0116246
8.7909592
8.398825
7.9077822
6.8350129
3.8632747
5.0152003
7.1669182
7.5616797
7.7253269
7.8071151
7.8224918
7.7705608
7.6516277
7.4080688
6.6594632
3.9411515
5.2895839
6.7523876
6.9553383
6.9557822
6.9165068
6.9042341
6.9321568
6.9615123
6.8917631
6.3969739
4.1907427
5.3888521
6.3248453
6.3952353
6.3062862
6.2117513
6.1877668
6.250583
6.3533403
6.3904896
6.0931193
4.4703813
5.333161
5.9093517
5.8937247
5.7602323
5.6439617
5.6159526
5.6915944
5.8267323
5.9246222
5.7703568
4.6531547
5.1780889
5.520777
5.4512808
5.2986951
5.1772118
5.1487603
5.2267351
5.3727057
5.502727
5.4473514
4.7021632
4.9704505
5.1651024
5.0630737
4.905192
4.7864142
4.7591121
4.8345996
4.9804469
5.1257302
5.1359109
4.6481273
4.7455156
4.843041
4.7222797
4.5665916
4.4541306
4.4286361
4.4995441
4.6398319
4.790406
4.8433574
4.5300734
4.5266091
4.5530737
4.4244796
4.2775708
4.1748768
4.1518545
4.216144
4.3458881
4.4932859
4.5740402
4.3780798
9.84487
9.8396345
9.8395467
9.839527
9.8395174
9.8395148
9.8395195
9.8395322
9.8395565
9.8398503
9.85155
8.6129847
8.4695295
8.4644257
8.4623884
8.461512
8.4613443
8.4618459
8.4631613
8.4661989
8.4747985
8.6148287
7.6273083
7.518334
7.5124053
7.5082683
7.5059078
7.5054053
7.5068548
7.5100677
7.5150593
7.5210674
7.6271096
6.8458557
6.7572956
6.7511981
6.7448255
6.7404317
6.7394253
6.7422418
6.7478686
6.7542905
6.7595439
6.8455708
6.2139512
6.138861
6.130291
6.1205844
6.1131881
6.1113906
6.1162779
6.1253379
6.1347751
6.1420191
6.2140299
5.6959584
5.6307162
5.6186002
5.6051188
5.5942322
5.5915073
5.5986103
5.611628
5.624967
5.6353474
5.6967403
5.2691053
5.2133171
5.2002353
5.1920071
5.1828702
5.1763764
5.1867345
5.1938629
5.2071002
5.218839
5.2706022
4.9195682
4.8782805
4.8819968
4.9244285
5.7310289
6.168287
5.210177
4.8552887
4.8789106
4.8811121
4.9214941
4.6385429
4.6244566
4.8725817
8.3169423
10.220594
10.501147
9.5617944
6.429187
4.6149412
4.6175201
4.6400661
4.4155949
4.4510392
7.7666658
10.219148
11.092837
11.275863
10.744324
9.4164634
5.2631531
4.416401
4.4150124
4.2309837
4.9573513
8.9620385
10.090278
10.78841
10.966133
10.48926
9.6134345
7.5678257
4.2504774
4.2271164
4.0602277
6.2871219
8.7215068
9.4884791
10.045417
10.476685
9.7962607
9.137815
8.1151837
4.3159637
4.0538065
3.9015655
6.9736864
8.3017586
8.8951431
9.323414
9.4323146
9.1353349
8.6201803
7.8801377
4.5981464
3.8868663
3.7621651
6.9623866
7.8629676
8.2643128
8.5048589
8.5589748
8.4037316
8.0859871
7.5489348
5.0334905
3.7307619
3.6972235
6.7500124
7.3854817
7.6004167
7.6915171
7.7084865
7.6554832
7.512853
7.1731906
5.4686463
3.5934102
3.7847676
6.4750851
6.8862255
6.9631337
6.962078
6.9581246
6.9645031
6.9394386
6.7599384
5.6813674
3.4827938
4.0338657
6.1533515
6.3959891
6.3844708
6.332859
6.3182729
6.355672
6.3998619
6.3326487
5.6610248
3.4558666
4.3017269
5.8130364
5.9363651
5.8727199
5.7960347
5.7766487
5.8285705
5.9100326
5.9162244
5.5046988
3.5700978
4.4658447
5.4758214
5.5175548
5.4250513
5.3378488
5.3168086
5.3741788
5.4736702
5.5261875
5.2815781
3.7984014
4.5022661
5.1544739
5.1417846
5.0344866
4.9446673
4.9235999
4.9816517
5.0882298
5.1691087
5.0360766
3.9915388
4.4433364
4.8562179
4.8066627
4.6930336
4.6048432
4.5845632
4.640835
4.7482588
4.8459573
4.7918669
4.0734106
4.3262966
4.5822672
4.5089606
4.3960652
4.313162
4.2943948
4.3467361
4.4497303
4.5549206
4.5557324
4.0486135
9.8566191
9.8408411
9.8395814
9.8395516
9.8395404
9.8395382
9.8395446
9.8395587
9.8396419
9.8423258
8.616559
8.4784213
8.4684429
8.4650529
8.4637492
8.4635372
8.4642534
8.4663022
8.4704221
8.6120463
7.6279249
7.5230961
7.5173954
7.5134001
7.5110752
7.5106079
7.5120365
7.5152112
7.5186722
7.6276728
6.8465399
6.7611457
6.7565062
6.7524296
6.749298
6.7485678
6.7506596
6.7544916
6.7576554
6.8462177
6.2151895
6.1437236
6.1378795
6.1320456
6.1273884
6.1262639
6.1293936
6.13499
6.1398905
6.2139201
5.6978817
5.6373759
5.6294318
5.6210064
5.6144002
5.612792
5.6171822
5.6251793
5.6325408
5.6953772
5.2716153
5.2212049
5.2120487
5.2028231
5.195927
5.1956497
5.1990895
5.2073653
5.2153966
5.2677197
4.9218707
4.8833731
4.8783273
4.8858695
4.8354238
4.8494341
4.8827439
4.8791107
4.8782848
4.9173115
4.6382815
4.6166361
4.6351846
4.7406026
5.6767739
6.1007313
5.1052085
4.6148424
4.6196912
4.6361878
4.4092369
4.4104192
4.5204355
6.9126601
8.8984954
9.1915919
8.1835376
5.2579756
4.4304361
4.4146933
4.2167917
4.2454436
5.5222757
8.6198291
9.4032152
9.5321908
9.126725
7.5599245
4.3804704
4.2333721
4.0415685
4.0962695
7.0343815
8.5479531
8.9918365
9.0787608
8.8185584
8.1133113
4.9358338
4.0677851
3.8749018
4.1134251
7.369216
8.1715203
8.506337
8.5749995
8.3742289
7.8797121
5.9131131
3.9198621
3.7183806
4.2844132
7.2032063
7.7660999
8.0062473
8.0537676
7.9133569
7.549801
6.4106582
3.8105119
3.5737921
4.6055178
6.9313774
7.3204804
7.4674766
7.4936938
7.4132922
7.1744959
6.4070825
3.8027005
3.4407864
4.98742
6.5993659
6.84872
6.9201344
6.9301966
6.8962805
6.7611052
6.2204035
3.9869361
3.3193232
5.2299845
6.233006
6.3786136
6.3978575
6.397478
6.3942005
6.3336983
5.981436
4.2993751
3.2129204
5.2706783
5.8619819
5.9325571
5.919042
5.912466
5.9276236
5.9171969
5.706282
4.575058
3.1628158
5.1588797
5.5049887
5.5226753
5.4894878
5.479401
5.5051725
5.527047
5.4149279
4.7092652
3.1833945
4.9664397
5.1706901
5.1527218
5.1080998
5.0961681
5.1277551
5.1698317
5.1229601
4.6978801
3.2816961
4.7515435
4.86265
4.8213261
4.7704702
4.7577676
4.7921068
4.8465719
4.8431068
4.5906382
3.4164788
4.5366797
4.5816985
4.5256057
4.472775
4.4601779
4.4947363
4.5554643
4.5830348
4.4375738
9.8534434
9.8411099
9.8397022
9.839612
9.8396101
9.8396219
9.8398529
9.8423212
9.8519113
8.6152181
8.47946
8.4705213
8.4690418
8.468491
8.4701215
8.4749453
8.6120739
8.6157339
7.6270038
7.5230335
7.5181623
7.5178776
7.5172987
7.5186945
7.5213242
7.6277374
7.6274059
6.8453259
6.7609817
6.7569409
6.7569379
6.7563828
6.7575734
6.7599185
6.8462937
6.845777
6.2137904
6.1437289
6.1390965
6.1383137
6.1375476
6.1391577
6.1424834
6.2141108
6.2141964
5.6964347
5.6376304
5.6317347
5.6297744
5.6287615
5.6309767
5.6358309
5.6957136
5.6967481
5.2701049
5.2215239
5.2145253
5.2121155
5.211258
5.213424
5.2193609
5.268128
5.270027
4.9202897
4.8830262
4.8772891
4.8798245
4.880277
4.8780787
4.8816161
4.9177594
4.9192257
4.6368493
4.6145453
4.6158697
4.6307882
4.634932
4.6258295
4.6179049
4.6366
4.634019
4.4081936
4.4052159
4.405305
4.5711808
4.674221
4.4500379
4.4164811
4.4148552
4.4029632
4.2163468
4.2325747
4.4580382
5.4614901
5.839677
4.9111688
4.249974
4.2332944
4.2091458
4.0415649
4.0614884
5.0188826
6.729751
7.0476084
6.0310191
4.3111592
4.0675083
4.0341555
3.8746499
4.0001538
5.8566269
7.1501753
7.3286419
6.7215306
4.5859987
3.9195204
3.8688388
3.7175342
4.0451896
6.2928174
7.0738334
7.1806443
6.8293561
5.0148528
3.8090946
3.7135022
3.5727492
4.2204769
6.3384307
6.824872
6.8995641
6.6563617
5.4509609
3.7994129
3.5697678
3.4404019
4.5076723
6.1736247
6.5154897
6.5696008
6.3954614
5.6702909
3.9807264
3.4371378
3.3213534
4.8088248
5.9365367
6.1758135
6.2114893
6.0929201
5.6551322
4.2914372
3.3149828
3.2434746
4.9797182
5.6685166
5.8244622
5.8442082
5.7711257
5.5012986
4.5676476
3.2100793
3.2439828
4.9834376
5.3884307
5.4790224
5.4877334
5.4485477
5.2792019
4.7037506
3.1347307
3.3539289
4.8677018
5.1041726
5.1514954
5.1540337
5.1372
5.0336958
4.69425
3.1323306
3.5426957
4.6903707
4.8297964
4.8491152
4.848022
4.844571
4.7905344
4.5882999
3.2166984
3.6867723
4.4960447
4.572764
4.5729832
4.5694338
4.5752513
4.5549943
4.4360105
3.3636929
9.8510121
9.848244
9.8424965
9.8414489
9.8431974
9.8515514
8.6175814
8.6146817
8.6118146
8.4810133
8.6126282
8.6150009
7.6292039
7.6277684
7.6271181
7.523294
7.6273152
7.6273978
6.8474116
6.8463393
6.8456177
6.7610845
6.845728
6.8460131
6.2157454
6.2148065
6.2137088
6.1437512
6.2137072
6.2146346
5.6982272
5.6975305
5.6959676
5.6374126
5.6956573
5.6973542
5.2716177
5.2717986
5.2699295
5.2206739
5.2689759
5.271108
4.9210669
4.9238807
4.9224966
4.8806127
4.9204341
4.9219907
4.6360972
4.6448317
4.6460025
4.6097032
4.6418705
4.6405385
4.4053055
4.4232673
4.4291891
4.394836
4.4227607
4.415499
4.2115425
4.2371992
4.2457066
4.2181645
4.2370529
4.2275109
4.0364335
4.0623042
4.0841439
4.0455614
4.07357
4.0541149
3.870959
3.8993099
3.9799656
3.9479778
3.9301893
3.8871711
3.7157223
3.7492983
3.9899879
3.9253046
3.8595116
3.7309586
3.5720744
3.6500079
4.201646
3.9917848
3.9306332
3.593127
3.4394782
3.6227037
4.5008998
4.1620154
4.175065
3.4809903
3.3168149
3.7277565
4.7319108
4.398468
4.4543012
3.4501273
3.2094209
3.932935
4.8349355
4.5964941
4.6405369
3.5568832
3.1305829
4.1338194
4.8207404
4.6809549
4.6935295
3.7820862
3.1183443
4.2497972
4.725669
4.6508656
4.642468
3.977287
3.1971765
4.2591219
4.5830291
4.5424494
4.5264282
4.0634542
3.3474032
4.1848497
4.414652
4.3804605
4.3759758
4.0423505
9.851013
9.8515515
8.9074211
8.9035775
9.8482447
9.8431956
8.9023116
8.8978754
9.8565131
8.9100816
8.9088405
9.8424943
9.8414466
8.8968218
9.0499539
9.8512151
8.9088945
8.9100662
9.8414432
9.8424956
9.0499668
8.8967349
9.8431949
9.848242
8.8979426
8.9022495
9.8515513
9.8510119
8.90357
8.9074169
3.3310275
4.0322227
3.4435027
3.9527658
4.1760331
4.3707694
4.0838713
4.2543685
3.4366231
3.5017506
3.5004236
4.4095389
4.3759461
4.281603
4.3375686
3.4345208
3.5018329
3.5086613
4.3767743
4.4109576
4.3376694
4.2825391
4.373023
4.182144
4.2558971
4.0879889
4.0397572
3.3494878
3.9581354
3.4612813
9.8519133
8.9055243
9.8566039
8.906858
9.8534524
9.8423339
8.9046557
8.8968319
8.9068693
9.8423279
9.8534344
8.8967772
8.9045553
9.8519106
8.9055691
3.3313486
3.4546579
3.4130799
3.4935279
3.6777629
4.4338663
3.7063076
4.3188193
3.5091456
4.4365615
3.6933358
4.3201043
3.7185807
3.3485867
3.4719788
9.8534276
8.9046533
9.856618
9.8423302
8.9069131
8.8968326
8.9046318
9.8423269
9.856618
8.8967662
8.906881
3.6792873
3.707424
3.4173953
4.4358151
3.4977898
4.3202361
3.7180984
4.4361824
3.4301946
4.3198936
3.5097563
9.850936
8.9073957
9.851551
8.9036179
8.9073832
9.8515521
8.9035072
3.3367249
3.4488037
4.0360567
3.9557734
3.4615916
4.0409818
3.9592048
9.8482447
8.9023776
9.8431962
8.8979639
8.902317
9.8431929
8.8978677
11.650224
10.732241
11.032209
12.447877
12.844135
11.908214
12.581301
11.502669
11.029115
10.708326
12.834756
12.406549
12.577216
11.851861
10.826816
9.9530452
10.206914
11.801412
12.547447
10.903629
11.306077
10.506767
10.204776
9.9353545
12.543944
11.750586
11.303835
10.878138
4.1802818
4.0872024
4.3734693
4.2568579
4.0885304
4.3748098
4.256993
9.8424948
8.910073
8.89688
9.8565125
9.8414482
8.9088812
9.0500019
9.8511915
8.8967862
8.9100305
9.8414418
9.8565133
9.0499352
8.9088454
12.675476
12.616662
11.92886
12.969667
13.002253
12.535678
12.622284
11.32477
11.854276
10.717164
12.846558
11.661648
12.589174
11.044436
11.805132
9.9630434
10.907995
10.862243
12.60428
10.231352
11.332781
12.590853
11.159331
11.504717
12.645286
12.496925
11.526892
11.592317
11.877181
11.501016
11.131573
12.493743
12.593398
11.587844
11.500833
10.515312
10.879221
9.9403056
12.554709
10.835843
11.304411
10.209451
4.4121207
3.5028344
4.2839918
3.4341781
4.3778809
3.4979509
4.3395385
3.4435111
4.2839669
3.5170464
4.3801153
3.4516369
4.3397534
3.5147659
9.8414454
8.908922
9.0500203
9.8511919
9.8424959
8.9100705
8.8968713
9.8563852
9.0499865
8.9088956
9.8424933
9.8511934
8.8967327
8.9100326
12.605552
10.23174
11.332122
10.551319
11.820877
9.9691101
10.917371
12.500937
11.527617
11.596655
11.9509
12.649022
11.17043
11.529282
12.598785
11.593313
11.50941
12.649299
11.952719
11.52778
11.169366
10.840706
11.313368
10.213585
11.821016
10.54183
10.914427
9.9597889
4.3773862
3.4973462
4.3395174
3.4243268
4.4111376
3.4998277
4.283222
3.4529662
4.3400798
3.515926
4.4154872
3.4504877
4.2859208
3.5229607
9.843195
8.8980638
9.8482434
8.9023754
8.8979379
9.8482437
8.9022429
12.885614
11.927849
12.646053
11.357531
11.687267
10.752831
11.073665
12.469401
12.646644
11.93055
11.68753
11.359362
11.074269
10.755099
12.609132
10.91673
11.334688
10.55051
10.864378
9.9671136
10.232063
11.823629
11.332672
10.918295
10.864971
10.551923
10.231798
9.9690987
4.37252
4.2561175
4.1775027
4.0852272
4.2596494
4.1895489
4.0936712
9.8515534
8.9036662
9.8509353
8.9074057
8.9036078
9.8509362
8.9073406
4.03377
3.9540373
3.3340765
3.4462776
3.9651912
3.3641557
3.4750256
9.8423299
8.9069356
8.8969005
9.8534357
8.9046684
9.8566187
8.8969648
8.9068734
9.8534399
8.904924
4.4363626
3.4967506
4.3208643
3.684262
3.7116523
3.4427638
4.320784
3.5212604
3.660188
3.6890951
9.8519108
8.9055904
9.8423282
8.9046957
8.8968614
9.8566039
8.9069177
9.853417
8.8969946
8.904849
9.8566027
8.9069122
8.905636
3.3389803
3.462324
4.4386326
3.713625
4.3223959
3.4271567
3.5069475
3.6587159
4.3197341
3.687848
3.433564
3.5124626
3.4700741
9.8515498
8.9074812
8.9036207
9.8431944
8.9024267
8.897956
9.8414456
8.8969138
9.0500046
9.8512142
9.8565135
8.9100917
8.9088673
9.8424944
9.0500678
8.8968948
9.8563749
9.8512153
8.9089287
8.910124
9.8482441
8.898091
8.9023701
9.8510114
8.9037232
8.9074785
4.0418445
3.4591947
3.9602261
4.3764876
4.090532
4.2588592
4.3807567
4.2857257
4.340838
3.4400801
3.4459065
3.5137465
3.509248
4.4140991
4.3408837
4.2851867
3.4455462
3.4386345
3.5088758
3.512695
4.1840322
4.2583822
4.0898543
3.3526752
3.9604999
3.4641955
9.5425459
9.8506104
9.5412876
9.855425
9.5450052
9.8571598
9.5439628
9.8531682
9.5440304
9.8537606
9.5460769
9.5422215
9.8564514
9.5441815
9.8511913
9.5411688
9.851906
9.5446392
9.5413442
9.8567008
9.5409644
9.8555087
9.5414549
9.8524753
9.8448712
8.9058384
8.8992971
9.841107
9.8398512
9.0461261
9.0404703
9.8530138
8.8993213
8.9057815
9.8398518
9.8411025
9.0403981
9.046112
9.5447683
9.8518327
9.543379
9.8522324
9.5425175
9.5411667
9.8543489
4.3244752
3.6746308
4.2163838
4.491541
4.5529131
4.3812077
4.4323234
3.6685901
4.2186115
3.6865068
4.55281
4.4929904
4.4312914
4.3813303
9.5414891
9.8524993
9.8408383
8.9022289
9.0442551
9.8408356
9.8396373
9.0442378
9.0367943
9.8498493
9.0442022
8.9021505
9.839637
9.8408327
9.0367005
9.0442412
9.5425869