/*--------------------------------*- C++ -*----------------------------------*\
  =========                 |
  \\      /  F ield         | OpenFOAM: The Open Source CFD Toolbox
   \\    /   O peration     | Website:  https://openfoam.org
    \\  /    A nd           | Version:  8
     \\/     M anipulation  |
\*---------------------------------------------------------------------------*/
FoamFile
{
    version     2.0;
    format      ascii;
    class       volScalarField;
    location    "100";
    object      p;
}
// * * * * * * * * * * * * * * * * * * * * * * * * * * * * * * * * * * * * * //

dimensions      [0 2 -2 0 0 0 0];

internalField   nonuniform List<scalar> 
72028
(
0.31198959
0.3076747
0.3067734
0.3066929
0.30363434
0.30369768
0.29786951
0.2979522
0.28789948
0.28802201
0.27143449
0.27160992
0.24504326
0.24527619
0.20456222
0.20485775
0.14638297
0.14660415
0.070975484
0.070964386
-0.011606669
-0.012012671
-0.081542617
-0.08230188
-0.12223196
-0.12291918
-0.13250472
-0.13286546
-0.12214984
-0.12223882
-0.10230077
-0.10233179
-0.080570755
-0.080513318
-0.060641655
-0.060497982
-0.043712907
-0.043544622
-0.029793479
-0.029648293
-0.018392306
-0.018242409
-0.0087779507
-0.008428189
0.3080072
0.30817734
0.30877977
0.30902166
0.30870282
0.30810767
0.30716272
0.30651701
0.30721587
0.30803514
0.30829477
0.30774153
0.30705116
0.30662384
0.30341765
0.3042762
0.30544502
0.30579491
0.30498072
0.30418023
0.3034831
0.29753976
0.29866272
0.30044664
0.30097464
0.29967884
0.29860781
0.29757917
0.28737746
0.28895918
0.29166351
0.29244961
0.29047519
0.28901062
0.28738781
0.27060397
0.2727114
0.27669291
0.27783469
0.27493319
0.27302316
0.27061723
0.24385735
0.24605442
0.25144331
0.25297015
0.24907014
0.24713071
0.24387174
0.20306323
0.20394679
0.21001659
0.21169926
0.20734656
0.20688603
0.20313526
0.14495081
0.14167791
0.14613366
0.14725534
0.14418927
0.14819309
0.14513573
0.070338761
0.059036725
0.057366463
0.056404471
0.058398544
0.071003032
0.070908915
-0.010909282
-0.03150219
-0.043095495
-0.047261813
-0.037303716
-0.014468181
-0.0098139408
-0.079966772
-0.10386403
-0.1204942
-0.1253333
-0.11274996
-0.086608771
-0.07858467
-0.12078643
-0.13885191
-0.15138273
-0.15449594
-0.14571392
-0.12725335
-0.11954335
-0.13165748
-0.14021829
-0.14638425
-0.14725176
-0.14381797
-0.13596345
-0.13086239
-0.1218493
-0.12282309
-0.12371968
-0.12325971
-0.1236058
-0.12383351
-0.12157593
-0.10223648
-0.098785378
-0.096977369
-0.09609276
-0.097992356
-0.10255516
-0.1023391
-0.080544414
-0.075224256
-0.072629615
-0.071856706
-0.073954724
-0.079911641
-0.080822153
-0.060639818
-0.05500508
-0.052489598
-0.05196448
-0.053780086
-0.059594446
-0.060993966
-0.043734163
-0.038598641
-0.036460205
-0.036087025
-0.037548073
-0.042615751
-0.044070978
-0.029767253
-0.025488195
-0.02381536
-0.023546417
-0.024664459
-0.028807284
-0.030108483
-0.018301747
-0.014952481
-0.01374545
-0.01358316
-0.0143617
-0.017612759
-0.018650484
-0.0085902969
-0.00635787
-0.0057379231
-0.0056882913
-0.006081325
-0.0084192725
-0.0088492286
0.30758362
0.30892649
0.31071166
0.31215636
0.31263855
0.31195316
0.31042281
0.30872826
0.30759008
0.30663768
0.30836914
0.31066752
0.31243524
0.31287291
0.31176248
0.30964988
0.30750527
0.30660688
0.30364688
0.30587145
0.30914191
0.31170645
0.31233987
0.31069308
0.30763756
0.30464317
0.3034967
0.29789638
0.30106305
0.30611489
0.31014071
0.31113064
0.30849264
0.30370801
0.29910024
0.29756995
0.2879363
0.29254809
0.3003474
0.3067335
0.30830999
0.30405973
0.29654635
0.28954546
0.28732869
0.27141303
0.27788161
0.28952066
0.29935704
0.30182321
0.29518765
0.28378051
0.27346635
0.27048744
0.24488529
0.25275828
0.26882599
0.2829243
0.28652735
0.27691771
0.26083533
0.24694908
0.24366909
0.2043177
0.21112408
0.22984738
0.24728477
0.25195278
0.23978332
0.2204457
0.20483689
0.20279714
0.14614287
0.14632509
0.16013946
0.17180915
0.1745529
0.16739375
0.15332495
0.14229927
0.14473052
0.070977062
0.055741404
0.045547518
0.029104355
0.024228979
0.037714594
0.052462858
0.059105731
0.07053338
-0.011420035
-0.046946323
-0.09033952
-0.13866134
-0.15172402
-0.11624844
-0.06594549
-0.032053866
-0.010018692
-0.081708114
-0.12559391
-0.18039409
-0.23448186
-0.24848004
-0.21099489
-0.15067813
-0.10520457
-0.078567343
-0.12292611
-0.1558615
-0.1955961
-0.22922216
-0.23744153
-0.21540447
-0.17500289
-0.14066672
-0.11944861
-0.13340846
-0.14871666
-0.16700534
-0.17930201
-0.18227149
-0.17480055
-0.15808541
-0.14203445
-0.13077956
-0.12288422
-0.12434131
-0.12764539
-0.12859644
-0.12906146
-0.12854676
-0.12654859
-0.12414277
-0.12155347
-0.10265324
-0.096726747
-0.092658238
-0.089275487
-0.088646377
-0.090850105
-0.095207329
-0.099540778
-0.10230655
-0.080569709
-0.072077973
-0.065574086
-0.06109958
-0.060158065
-0.063085043
-0.069080552
-0.07556486
-0.080768281
-0.060410284
-0.05184514
-0.045365532
-0.041131673
-0.040241638
-0.0429951
-0.04862255
-0.055105545
-0.060893343
-0.043406989
-0.035761828
-0.030294657
-0.026765007
-0.026029702
-0.028306677
-0.032982372
-0.038570668
-0.043976647
-0.029469314
-0.023146756
-0.018878231
-0.016140918
-0.015569766
-0.017334608
-0.020958734
-0.025400976
-0.029954638
-0.01811734
-0.013220612
-0.010128085
-0.0080783527
-0.0076517398
-0.0089717969
-0.011634576
-0.014850907
-0.01840583
-0.0086634978
-0.0056120676
-0.0037887514
-0.0024156298
-0.0021262355
-0.0030125631
-0.0046979542
-0.0064153577
-0.0085179745
0.30794889
0.30890989
0.31163736
0.31472288
0.31708233
0.31783908
0.31671106
0.31414554
0.31111019
0.30866903
0.31043624
0.30647703
0.30835398
0.31192315
0.31580954
0.31862429
0.31928315
0.31752373
0.31406154
0.31020884
0.30732626
0.30675785
0.30338533
0.30586921
0.31095672
0.31663439
0.32082957
0.32181009
0.31914497
0.31400523
0.30842963
0.30437695
0.30360472
0.29750723
0.30105653
0.30889937
0.31793103
0.32483231
0.32645556
0.32199311
0.31363027
0.30489115
0.29867258
0.29771684
0.28735122
0.29253147
0.30464977
0.3192298
0.33076849
0.33352965
0.32591809
0.31213885
0.29831351
0.28886788
0.28756198
0.27058271
0.27783098
0.29599561
0.31906401
0.33842201
0.34314407
0.33015336
0.30762035
0.28636263
0.27247321
0.27087357
0.24382602
0.25274888
0.27788609
0.31200679
0.34222153
0.34989816
0.32912682
0.29482226
0.26432564
0.24563588
0.24420075
0.20299785
0.21113169
0.24066714
0.2852526
0.32588381
0.33545899
0.30865555
0.26217924
0.22441305
0.20340278
0.20353382
0.1448873
0.14630515
0.16831606
0.19289094
0.19851162
0.19919028
0.19796376
0.18299573
0.15622458
0.14121343
0.145553
0.07029054
0.05577907
0.037784808
-0.021256187
-0.077560624
-0.087019852
-0.053827697
0.01382781
0.050701895
0.059361058
0.071204745
-0.010904595
-0.046946504
-0.12131216
-0.25206675
-0.34954064
-0.37006345
-0.30826556
-0.1850037
-0.074743471
-0.029908205
-0.0097832891
-0.079955157
-0.12570002
-0.21851319
-0.34358499
-0.44189311
-0.46210034
-0.39991664
-0.28204308
-0.16291973
-0.1016562
-0.078803586
-0.12080138
-0.15606199
-0.22070982
-0.28904424
-0.33967033
-0.35242629
-0.31857826
-0.25633128
-0.18464582
-0.13734563
-0.11988454
-0.13168687
-0.14895422
-0.17666156
-0.2003619
-0.21698657
-0.22119806
-0.21045387
-0.18951949
-0.16300615
-0.13995955
-0.1311629
-0.12191474
-0.12456317
-0.12874329
-0.13034224
-0.13159407
-0.13211716
-0.13140129
-0.1298567
-0.12750932
-0.12321756
-0.12176117
-0.10230114
-0.096879976
-0.09018756
-0.083336226
-0.079143714
-0.078376162
-0.081097638
-0.086731089
-0.09403679
-0.099393199
-0.10242185
-0.080612714
-0.072178279
-0.062089646
-0.053230167
-0.047811922
-0.046742746
-0.050188852
-0.057518394
-0.067335274
-0.075820862
-0.080862869
-0.060698752
-0.051906186
-0.042026449
-0.033728226
-0.02868427
-0.027675544
-0.030856628
-0.037708264
-0.047049253
-0.055510627
-0.061002502
-0.043781297
-0.035796594
-0.027499992
-0.020589178
-0.016411875
-0.015569828
-0.018195807
-0.023881268
-0.031698015
-0.03898099
-0.044090544
-0.029815929
-0.023167403
-0.016709313
-0.011304206
-0.007997271
-0.0073303995
-0.0094027743
-0.013883386
-0.019965818
-0.025768358
-0.030143938
-0.018352949
-0.013234078
-0.008509689
-0.0044136169
-0.0018787565
-0.0013641364
-0.0029539564
-0.0063637682
-0.010920872
-0.015144835
-0.018690597
-0.0086256761
-0.0056137026
-0.0027275602
0.00015759105
0.0020603239
0.0024614786
0.0012567097
-0.001226341
-0.0042857553
-0.0064845543
-0.008930213
0.30811517
0.31068328
0.31471729
0.31903629
0.32225817
0.32327546
0.32172973
0.31818438
0.3138708
0.31014447
0.30819987
0.30717614
0.3106411
0.31579787
0.32115251
0.32495926
0.32583527
0.32344918
0.318716
0.31329817
0.30887329
0.30702568
0.30425989
0.3091456
0.31663917
0.32466124
0.33050648
0.33185552
0.32813617
0.32091923
0.31290234
0.30653692
0.30415467
0.29863822
0.30610551
0.31792717
0.33119799
0.34115237
0.3434608
0.33704366
0.32485518
0.31186437
0.30197113
0.29851726
0.2889218
0.30030304
0.31920077
0.34155352
0.35973166
0.36410126
0.35195659
0.33059807
0.30927555
0.29384601
0.28880225
0.27263578
0.28944914
0.31902338
0.3571595
0.38928336
0.3971106
0.37550437
0.33800845
0.30314703
0.27977041
0.27273009
0.24597466
0.26877241
0.31199819
0.3725103
0.42798841
0.441703
0.40370309
0.3414619
0.28828479
0.25539528
0.24671993
0.20384542
0.22983651
0.28531584
0.36541861
0.42184867
0.43374668
0.39908984
0.32564183
0.25375952
0.21426145
0.20645441
0.14157333
0.16019157
0.19293195
0.19826593
0.2129862
0.22305595
0.20204287
0.19992456
0.17708737
0.14884601
0.14797305
0.058953886
0.045565161
-0.02156698
-0.11619136
-0.096768966
-0.065127983
-0.12177215
-0.076823344
0.024112641
0.05526057
0.07144791
-0.031560935
-0.090784516
-0.25263055
-0.42050885
-0.53021351
-0.48004118
-0.45566618
-0.34493886
-0.1582666
-0.052227927
-0.013109871
-0.10394059
-0.18111446
-0.34422202
-0.52830891
-0.63287007
-0.73566437
-0.61325514
-0.43556461
-0.25647807
-0.13207315
-0.084707595
-0.13892716
-0.19618755
-0.28950061
-0.39233799
-0.50754572
-0.54043784
-0.44853175
-0.33903908
-0.24187678
-0.160274
-0.12551142
-0.14031252
-0.16734979
-0.20060359
-0.23379769
-0.26536738
-0.27448262
-0.25093443
-0.21726531
-0.18421341
-0.15031119
-0.13489823
-0.12297855
-0.12781941
-0.13043744
-0.13350178
-0.13756545
-0.1389983
-0.13590151
-0.1320308
-0.12932983
-0.1243339
-0.12355663
-0.098931366
-0.092739448
-0.083362019
-0.075786314
-0.071562436
-0.070884202
-0.073472675
-0.079438536
-0.088104449
-0.096074492
-0.10282369
-0.075347385
-0.065608826
-0.053226622
-0.043248665
-0.037338398
-0.036215698
-0.039913349
-0.047985568
-0.059391258
-0.071263877
-0.080410453
-0.055096165
-0.045377675
-0.033714758
-0.024389191
-0.018884257
-0.01781938
-0.02124622
-0.028787629
-0.039499396
-0.051085848
-0.06017127
-0.038673046
-0.030299858
-0.020573985
-0.012833008
-0.008247482
-0.0073570643
-0.010204949
-0.016478572
-0.025389833
-0.035153569
-0.043206285
-0.025545378
-0.018881741
-0.011291247
-0.0051569164
-0.0015341002
-0.00082556113
-0.0030745263
-0.0080409706
-0.015061292
-0.022690866
-0.029351563
-0.014996357
-0.010129111
-0.0044024235
0.00032725349
0.0031847013
0.0037546464
0.0019817117
-0.0019030981
-0.0072634198
-0.012896669
-0.018080689
-0.0063966024
-0.0037877956
0.00016414521
0.0037831387
0.0061311289
0.0066238783
0.0051480971
0.0020606712
-0.0018586961
-0.0054437356
-0.0088310995
0.31184597
0.30869531
0.31210832
0.31706739
0.32225075
0.32608369
0.32728911
0.32544757
0.32121341
0.31599962
0.31137084
0.30853186
0.30669887
0.30797137
0.31238748
0.31859224
0.32494284
0.32943445
0.33046143
0.32763996
0.32203622
0.31556791
0.31013041
0.30750888
0.303583
0.30541857
0.31169554
0.32082695
0.33050001
0.33753437
0.33914658
0.33467157
0.32596886
0.31625695
0.30835663
0.30482272
0.29782125
0.30041265
0.31011423
0.32481691
0.34114591
0.3534087
0.35628776
0.34829723
0.33333766
0.31725199
0.30479358
0.29950401
0.28783818
0.2915956
0.30665254
0.33071025
0.3596988
0.38373932
0.38944286
0.37344548
0.3452806
0.31803659
0.29818872
0.29031528
0.27130426
0.27655167
0.29922784
0.33832721
0.3892533
0.43259314
0.44334902
0.41385385
0.36366367
0.31719295
0.28627885
0.27495401
0.24485896
0.25127548
0.28278158
0.34218036
0.42799368
0.50354355
0.52101463
0.47122868
0.38366043
0.30927502
0.26441046
0.24972727
0.20429779
0.20980089
0.24717811
0.32591449
0.42183567
0.49096043
0.50830527
0.4609466
0.37674321
0.28153364
0.2248505
0.20989816
0.1460912
0.14589286
0.17171599
0.19830462
0.21290703
0.31259722
0.35393291
0.25437011
0.19978174
0.18963668
0.15668125
0.15062222
0.070669075
0.057144139
0.028733272
-0.07804962
-0.094683065
0.20599844
0.33947309
0.01650742
-0.11946401
-0.0138908
0.048657113
0.070876681
-0.01185728
-0.043376895
-0.1395787
-0.35043339
-0.524166
-0.19720722
0.43076256
-0.1116912
-0.45237944
-0.23930013
-0.07719581
-0.01863199
-0.081735462
-0.12077042
-0.23533945
-0.44248212
-0.63327427
-0.67698781
-0.82910771
-0.90508336
-0.56612979
-0.33263859
-0.16252476
-0.093385945
-0.12234525
-0.15160025
-0.22971759
-0.34023812
-0.50739681
-0.78801577
-0.88094886
-0.63143659
-0.40817766
-0.2823754
-0.18140868
-0.13324653
-0.13253786
-0.14656302
-0.17950009
-0.2171802
-0.26539972
-0.33057536
-0.34941097
-0.29725493
-0.23912851
-0.19788963
-0.15969162
-0.1397031
-0.1221515
-0.12386902
-0.12863378
-0.13159828
-0.13752176
-0.14745338
-0.15046817
-0.14252623
-0.13417371
-0.13013394
-0.12610755
-0.12518134
-0.10227725
-0.097082321
-0.089237018
-0.079078353
-0.071493042
-0.068110031
-0.067629252
-0.069481268
-0.075014656
-0.084136536
-0.094151707
-0.10233595
-0.080549622
-0.072706384
-0.061033616
-0.047730349
-0.03727087
-0.031292982
-0.030149089
-0.033814901
-0.042182624
-0.054308904
-0.0678747
-0.07907407
-0.060622809
-0.052547698
-0.041064463
-0.02860759
-0.018825372
-0.013140962
-0.012017711
-0.015539313
-0.023400012
-0.03475549
-0.047559669
-0.058575523
-0.043689969
-0.036507156
-0.026709595
-0.016347033
-0.0082016297
-0.0034696882
-0.0025312266
-0.0054538294
-0.012010704
-0.021455709
-0.032141064
-0.041590328
-0.029771546
-0.023856237
-0.016097851
-0.0079468411
-0.0015008418
0.0022595691
0.0030095855
0.00068845995
-0.0045083871
-0.011984216
-0.020338653
-0.027896378
-0.018367117
-0.013785709
-0.0080457472
-0.0018421668
0.0032102871
0.0062176757
0.0068242924
0.0049631134
0.00084189292
-0.0049361293
-0.011179318
-0.016859041
-0.0087358704
-0.0057897455
-0.0023981627
0.0020766369
0.0061437206
0.0087531578
0.0093031595
0.0076651672
0.0042187093
-0.00020602784
-0.0043927445
-0.0078619468
0.30756115
0.30889939
0.31255256
0.31779035
0.32323648
0.32725193
0.32851441
0.32658357
0.32214139
0.31666405
0.31176553
0.30867111
0.3065871
0.30819912
0.31279068
0.31921738
0.32578572
0.33043087
0.33149152
0.32857273
0.32277618
0.31607918
0.31044782
0.3072411
0.30361656
0.30573393
0.31229249
0.32177422
0.33181779
0.33911471
0.34078547
0.33614561
0.32710885
0.31702525
0.30883396
0.3042455
0.29787823
0.30090918
0.31106674
0.3264037
0.34342639
0.35625945
0.35928775
0.35089773
0.33528193
0.31851133
0.30554062
0.29850123
0.28794255
0.29234728
0.30818694
0.33342757
0.36401319
0.38939331
0.39541637
0.37854159
0.34877989
0.32012149
0.29934412
0.28859731
0.2714269
0.27763732
0.3016274
0.34298
0.39705873
0.44335935
0.4548678
0.42333533
0.36990358
0.32063271
0.28802577
0.2721436
0.24503865
0.25272294
0.28626928
0.34974447
0.44163653
0.52096462
0.53914317
0.48728683
0.39441621
0.31458303
0.26691941
0.24533295
0.20448152
0.21136159
0.2516118
0.33516565
0.4335291
0.50819736
0.52774207
0.47518058
0.38766796
0.28868527
0.22792741
0.20330475
0.1462226
0.14682642
0.17402945
0.19866666
0.22283763
0.35419536
0.40508523
0.27830657
0.20155124
0.19165046
0.15904878
0.14144277
0.070549421
0.055904147
0.023470778
-0.088270973
-0.068577207
0.34082158
0.49009947
0.10028948
-0.11788481
-0.023917517
0.046747386
0.059839352
-0.012459093
-0.047859872
-0.15264464
-0.37229804
-0.47922088
0.43411765
1.151472
0.42344523
-0.46171726
-0.25912294
-0.084275631
-0.029117517
-0.082622775
-0.12570631
-0.24880728
-0.45658272
-0.72281418
-0.8340416
-0.40667946
-0.88453049
-0.66188066
-0.35081807
-0.17127025
-0.10034794
-0.12309717
-0.1545845
-0.23729077
-0.35246083
-0.54021998
-0.88142635
-0.95869861
-0.69640449
-0.42690674
-0.29214786
-0.18764629
-0.13568965
-0.13288402
-0.14714678
-0.1819921
-0.22076433
-0.2740437
-0.34922567
-0.3671257
-0.31135119
-0.24502872
-0.20112755
-0.16279881
-0.13845844
-0.12217813
-0.12308873
-0.12877049
-0.13173637
-0.13863517
-0.15026922
-0.15348221
-0.14457564
-0.13490238
-0.13042425
-0.12699063
-0.12224872
-0.10222896
-0.095902887
-0.088388912
-0.078068768
-0.070609237
-0.0674775
-0.067034279
-0.068727417
-0.074151235
-0.083330275
-0.093580872
-0.099237971
-0.08040853
-0.071668109
-0.059940459
-0.046504933
-0.036010542
-0.030036859
-0.028898378
-0.03254651
-0.040992425
-0.053234515
-0.066934673
-0.076130403
-0.060420024
-0.051806114
-0.040066056
-0.027493052
-0.017665452
-0.011934348
-0.010810908
-0.014342623
-0.022293941
-0.033750857
-0.046700788
-0.055948282
-0.043477897
-0.035956689
-0.025894753
-0.015430645
-0.0072419696
-0.002469571
-0.0015307081
-0.0044653974
-0.011089274
-0.020625026
-0.031439656
-0.039433527
-0.029611254
-0.023444808
-0.01547082
-0.0072289077
-0.00074227104
0.0030542771
0.0038050273
0.0014716304
-0.0037821698
-0.011329164
-0.019802017
-0.026216181
-0.018235077
-0.01350709
-0.007583645
-0.0012971443
0.0038109527
0.006852954
0.007463026
0.0055881723
0.0014156769
-0.0044408491
-0.010795557
-0.015569795
-0.0084346539
-0.005637287
-0.0020904725
0.0024933554
0.006651823
0.0093151661
0.0098788009
0.0082088482
0.0046826299
0.00014996555
-0.004171737
-0.006545497
0.30853632
0.31181567
0.3166022
0.32162494
0.32534819
0.32652086
0.32473315
0.3206245
0.31558564
0.31112697
0.30837599
0.30761319
0.31164047
0.31741311
0.32335201
0.32755706
0.32852012
0.32587767
0.32063433
0.3146029
0.30959864
0.30739485
0.30488131
0.31059563
0.31905084
0.32803661
0.33457917
0.33608683
0.33192192
0.32383931
0.3148343
0.30756908
0.3046341
0.29958713
0.30838208
0.32188388
0.33694641
0.34821616
0.35084547
0.34354995
0.32975449
0.31496357
0.30357458
0.29925211
0.29034847
0.30390253
0.32577878
0.35183755
0.37333886
0.37847744
0.36413519
0.338981
0.31429542
0.29630284
0.28988781
0.27470766
0.29495526
0.32994428
0.37538858
0.41383872
0.42332062
0.39732712
0.35261735
0.31114084
0.2834494
0.27427212
0.24874388
0.27658395
0.3288763
0.40357801
0.47113323
0.48720159
0.44203806
0.36519217
0.30019765
0.26050386
0.24875783
0.20690312
0.23931482
0.30819857
0.39870865
0.46065475
0.47496587
0.43499588
0.35585358
0.2693936
0.22025697
0.20870088
0.14365573
0.16665763
0.19723741
0.20149387
0.25368696
0.27839499
0.22188522
0.19929275
0.18540055
0.15341107
0.14947775
0.057748642
0.03679868
-0.055105625
-0.12240007
0.019246933
0.096135692
-0.074985866
-0.10797343
0.0034619518
0.052287806
0.070355528
-0.038012328
-0.11688312
-0.30986541
-0.46207802
-0.10793066
0.42543688
-0.044272218
-0.40554379
-0.20504092
-0.065791122
-0.017978458
-0.11322648
-0.21088142
-0.39986482
-0.60829371
-0.91041001
-0.90346264
-0.90785267
-0.50470932
-0.30116638
-0.14908903
-0.091765671
-0.14584177
-0.21498395
-0.3180063
-0.44824616
-0.63128198
-0.69610322
-0.54063891
-0.3780506
-0.26590555
-0.17244716
-0.13158429
-0.1436161
-0.17432762
-0.2098006
-0.25035497
-0.29696589
-0.31107859
-0.27414697
-0.22962831
-0.19256857
-0.15594198
-0.13854688
-0.1232824
-0.12814238
-0.13088942
-0.13542374
-0.14225699
-0.14437586
-0.13894728
-0.13318788
-0.12996299
-0.12542422
-0.12466217
-0.097649787
-0.090524767
-0.080711208
-0.073110141
-0.069260727
-0.068585937
-0.070828165
-0.076770722
-0.085812738
-0.095026546
-0.1021062
-0.073642799
-0.062821872
-0.049900458
-0.039641712
-0.033644194
-0.032446632
-0.036149622
-0.044494588
-0.056396163
-0.06944711
-0.078898477
-0.053516813
-0.042784916
-0.030639296
-0.021041504
-0.015408704
-0.014269355
-0.017757637
-0.025539267
-0.036686983
-0.04913726
-0.058471927
-0.037342132
-0.028145513
-0.018033355
-0.010048468
-0.0053544482
-0.0044109313
-0.0073025442
-0.013785285
-0.023048956
-0.033467274
-0.041519942
-0.02451297
-0.017218558
-0.0092841279
-0.0029578154
0.00076076546
0.0015109395
-0.00078266715
-0.0059091067
-0.013232781
-0.021374547
-0.027812991
-0.014259214
-0.0088969726
-0.0028782417
0.0020518344
0.0050117679
0.0056146749
0.0037878083
-0.00025377143
-0.0058810807
-0.011938216
-0.016750968
-0.0060300475
-0.0029808662
0.0012939833
0.005179573
0.0076873196
0.0082193973
0.0066509097
0.0033403297
-0.00088735232
-0.0048829724
-0.0077022434
0.30790526
0.31022711
0.31396268
0.31800284
0.32103262
0.3219901
0.32053309
0.31720945
0.31319082
0.30975813
0.3078913
0.30688819
0.30949454
0.31390551
0.31856463
0.32190159
0.32267149
0.32057798
0.31644197
0.31177058
0.30805844
0.30687804
0.30404063
0.3074927
0.31384888
0.32075237
0.32580433
0.32697483
0.32376215
0.31754191
0.31069296
0.30541889
0.30388146
0.29849156
0.30356515
0.31347107
0.32468922
0.33318477
0.3351612
0.32968559
0.31934709
0.30841862
0.3002801
0.29814538
0.28887536
0.29637616
0.31197554
0.3304697
0.34517284
0.34870211
0.33894983
0.32148644
0.30382288
0.29128371
0.28821033
0.27280686
0.28352733
0.30740956
0.33784797
0.36356504
0.36981795
0.35256218
0.32267522
0.29472122
0.27601495
0.2717809
0.24678869
0.2604808
0.29453743
0.34130797
0.38356122
0.39425846
0.36506892
0.3176222
0.27614209
0.25041228
0.24543233
0.2064293
0.21997793
0.26176836
0.32533352
0.3764435
0.38722632
0.35555351
0.29279122
0.23856506
0.20870545
0.20484387
0.14767284
0.15271846
0.18237695
0.19934199
0.19924014
0.20098086
0.19895317
0.1960952
0.16681623
0.14499763
0.14643958
0.070378519
0.051690212
0.013031879
-0.077886326
-0.11997749
-0.1196743
-0.10847355
-0.03206655
0.040415607
0.057980957
0.070661682
-0.015123313
-0.066669217
-0.18591393
-0.34624961
-0.45492049
-0.46170364
-0.40608336
-0.27036613
-0.11292639
-0.0394905
-0.012347844
-0.087120606
-0.15091125
-0.28236874
-0.43636494
-0.56853085
-0.66116519
-0.50347563
-0.36048573
-0.20898952
-0.11605315
-0.082573501
-0.12746732
-0.17479275
-0.25619505
-0.33920727
-0.40834951
-0.42661526
-0.37768675
-0.29847403
-0.21506239
-0.14897799
-0.12318669
-0.13584259
-0.15769858
-0.18921774
-0.21714637
-0.23911617
-0.24464587
-0.22923649
-0.20378042
-0.17469492
-0.14596259
-0.13320081
-0.12353505
-0.1261894
-0.12954532
-0.13180613
-0.13401988
-0.13460556
-0.13295112
-0.13078971
-0.12861679
-0.1245907
-0.12264894
-0.10216319
-0.094924216
-0.086456299
-0.079210565
-0.074837635
-0.073933697
-0.076619626
-0.082635017
-0.090931708
-0.098206597
-0.1025496
-0.079469508
-0.068843622
-0.057284489
-0.04778515
-0.042022848
-0.040832665
-0.044396574
-0.052230143
-0.06310707
-0.073789562
-0.080542795
-0.05912904
-0.048416276
-0.037514448
-0.028620792
-0.023265937
-0.022173807
-0.025471819
-0.032764764
-0.042965588
-0.053438125
-0.060434537
-0.04216245
-0.032815692
-0.023726444
-0.016341905
-0.011901933
-0.01099921
-0.013738061
-0.019776626
-0.028261617
-0.037150619
-0.043428889
-0.028394486
-0.020836823
-0.013763853
-0.0079307743
-0.0044258962
-0.0037161515
-0.0058767905
-0.010659952
-0.017292451
-0.02428371
-0.029488248
-0.017250169
-0.011556794
-0.0062928752
-0.0018363996
0.00089954939
0.0014636828
-0.00022898859
-0.0039184507
-0.0089441232
-0.014057666
-0.018146248
-0.00810562
-0.004668041
-0.001192959
0.0020887068
0.0042442658
0.0047034939
0.003352207
0.00053464943
-0.0029957855
-0.0060505037
-0.0087164416
0.30693489
0.30848131
0.31085871
0.31361882
0.31575289
0.31643548
0.31540026
0.31308959
0.3104029
0.30830684
0.30644069
0.30732232
0.31001329
0.31310438
0.31538459
0.31592418
0.3144891
0.31170833
0.30870404
0.30727069
0.3033297
0.30447007
0.3082233
0.31267801
0.31603528
0.31683015
0.31468453
0.31061681
0.30631994
0.30447948
0.29743377
0.29895801
0.3047005
0.31165332
0.31704959
0.31833958
0.31483822
0.30836263
0.30169176
0.29900656
0.28722937
0.28939199
0.29813872
0.30911934
0.31791316
0.32003333
0.31424386
0.30380925
0.29343426
0.28955324
0.2703715
0.27323486
0.28614457
0.30298634
0.31707352
0.32053494
0.31107258
0.29467116
0.27913197
0.27373582
0.24350659
0.24661748
0.26403759
0.28808382
0.3091223
0.31439398
0.30002153
0.27605443
0.25443791
0.24786916
0.20269484
0.20445529
0.2240945
0.25353513
0.2813122
0.28831218
0.26905023
0.23844273
0.21300485
0.20744056
0.1446891
0.14193806
0.15590874
0.1768586
0.18927277
0.19118211
0.18487747
0.16655524
0.14766743
0.14788178
0.070380521
0.05866933
0.050308952
0.023528267
-0.01459226
-0.024384407
0.0032807539
0.040207125
0.055602501
0.069216349
-0.010371073
-0.032614763
-0.075348679
-0.15932623
-0.24028761
-0.25946414
-0.20481678
-0.11281586
-0.049599239
-0.017950953
-0.079055942
-0.10569777
-0.16351803
-0.25737075
-0.33333024
-0.35079451
-0.30068174
-0.20869868
-0.12961434
-0.09090522
-0.11982508
-0.14093085
-0.18500112
-0.24235422
-0.28280622
-0.29190012
-0.26534524
-0.21477464
-0.15929349
-0.13084994
-0.13090537
-0.1420426
-0.16310291
-0.18438046
-0.19802142
-0.20083245
-0.1921121
-0.17446058
-0.15066171
-0.13816434
-0.121451
-0.1240207
-0.12749285
-0.12932904
-0.13011153
-0.13016775
-0.12964521
-0.12844376
-0.12501703
-0.12461416
-0.10213248
-0.099399395
-0.093969334
-0.088029422
-0.084051706
-0.083123196
-0.085593315
-0.090814422
-0.096703174
-0.10197805
-0.080594648
-0.0754008
-0.067234353
-0.059286661
-0.054205639
-0.053067903
-0.056238037
-0.063025569
-0.07171084
-0.078334228
-0.060775957
-0.054940638
-0.046933189
-0.03939043
-0.034654129
-0.033616502
-0.036569028
-0.042905601
-0.0513005
-0.057531769
-0.043872218
-0.03842233
-0.031588867
-0.025290824
-0.02136778
-0.020519527
-0.02296153
-0.02821813
-0.035221537
-0.040537168
-0.029936097
-0.025284058
-0.019875893
-0.014977895
-0.011914632
-0.011249995
-0.013170597
-0.017263962
-0.022721175
-0.026899287
-0.018516472
-0.01477235
-0.01086865
-0.0072125075
-0.0048854566
-0.0043857696
-0.0058397223
-0.0089273033
-0.012927672
-0.015903852
-0.0087767848
-0.0063723148
-0.0042597851
-0.0018381787
-0.00018367545
0.00017424313
-0.00086997926
-0.0029903395
-0.0054874087
-0.0067712001
0.30731991
0.30838684
0.30985384
0.31108449
0.31148954
0.31088317
0.30958735
0.30822664
0.3073818
0.30638672
0.30710522
0.30864738
0.30991651
0.31025283
0.30942849
0.30793891
0.30721677
0.30652966
0.30330671
0.3041521
0.30629263
0.30810906
0.30860392
0.30737974
0.30528917
0.30442567
0.30346255
0.29739432
0.29848862
0.301758
0.30457973
0.30535422
0.30343009
0.30018636
0.29897371
0.29756193
0.28715373
0.28869787
0.29367966
0.29804932
0.2992536
0.29624447
0.29124574
0.28951034
0.28735848
0.27026331
0.27226504
0.27960075
0.28614285
0.28791279
0.2833794
0.27594547
0.27373788
0.27051334
0.24335057
0.24536581
0.25521851
0.26423813
0.26671902
0.26035066
0.25028842
0.2478961
0.24369099
0.20248271
0.20318331
0.21411455
0.22466963
0.22766492
0.22001376
0.20853957
0.20740774
0.20283938
0.1444777
0.14107394
0.14878507
0.15652162
0.15867675
0.15300992
0.14475762
0.14785454
0.14477946
0.070214311
0.059140774
0.055172163
0.048479041
0.046342022
0.051803228
0.057668622
0.069162669
0.070549965
-0.010417036
-0.030202486
-0.052504271
-0.077624903
-0.084606641
-0.066124078
-0.039840558
-0.018079224
-0.010040227
-0.078961123
-0.10199334
-0.13261049
-0.16312826
-0.1714356
-0.14906328
-0.11628057
-0.091035246
-0.078572323
-0.119737
-0.13762292
-0.16089671
-0.18190513
-0.18759725
-0.17210849
-0.14894372
-0.13095609
-0.11931135
-0.13090657
-0.14010121
-0.15078921
-0.15993362
-0.16261438
-0.15550248
-0.14568504
-0.13818804
-0.13061432
-0.12154749
-0.12334466
-0.12465949
-0.12618408
-0.12679847
-0.12504632
-0.1241989
-0.124608
-0.12133435
-0.10223058
-0.099490233
-0.096274381
-0.094153669
-0.093420624
-0.094747216
-0.09784814
-0.10196422
-0.10216601
-0.080653604
-0.075875115
-0.07136863
-0.067834934
-0.066794943
-0.06924894
-0.073484834
-0.078335525
-0.08071715
-0.060764185
-0.055523515
-0.051133245
-0.047500278
-0.04657598
-0.048986051
-0.053196707
-0.057553427
-0.060960932
-0.043861605
-0.038972543
-0.035178207
-0.032083119
-0.031335357
-0.033351193
-0.03696967
-0.040583511
-0.044091719
-0.029864223
-0.025753962
-0.022707105
-0.020294041
-0.019720651
-0.021290197
-0.024155221
-0.026959798
-0.030181161
-0.018343246
-0.015139803
-0.012914126
-0.011150946
-0.010735899
-0.011880213
-0.013970986
-0.015977363
-0.01876178
-0.0084827337
-0.0064841216
-0.0054635862
-0.0043811095
-0.0041390985
-0.0048605392
-0.0059976262
-0.0068746258
-0.0090917962
0.31023542
0.30791364
0.30823765
0.30838005
0.30811146
0.30770351
0.30652357
0.30678421
0.30726871
0.30701858
0.30718193
0.3067197
0.30338011
0.3039219
0.30458453
0.3040265
0.30442718
0.3037243
0.29751553
0.29832494
0.2993188
0.29833668
0.29910028
0.29802089
0.28737509
0.28863504
0.29017263
0.28850424
0.28981758
0.28813509
0.2706458
0.27255545
0.27480645
0.27201217
0.27422021
0.27172915
0.24397286
0.24657609
0.24960081
0.24518054
0.24868498
0.24533514
0.2033525
0.20634584
0.20977954
0.20309787
0.20854824
0.20470738
0.1454403
0.14796103
0.15055389
0.14120203
0.14924492
0.14622013
0.071027094
0.071360641
0.070754474
0.059538198
0.070023995
0.07035951
-0.01004108
-0.013341889
-0.018910506
-0.029500185
-0.018413275
-0.012728378
-0.079133734
-0.085038877
-0.093739729
-0.10071622
-0.092192958
-0.082905642
-0.12017854
-0.12584701
-0.13355701
-0.13589067
-0.13177051
-0.12328721
-0.13133909
-0.13508013
-0.1398424
-0.13846633
-0.13850799
-0.13313447
-0.12183932
-0.1236678
-0.12523794
-0.12215649
-0.12451576
-0.12245571
-0.10242959
-0.10286242
-0.10235195
-0.099139577
-0.10195987
-0.10234138
-0.080823398
-0.080409061
-0.079067394
-0.076059055
-0.078771675
-0.080316057
-0.060943135
-0.060148401
-0.058562325
-0.055887909
-0.058376512
-0.060223396
-0.04402832
-0.043183541
-0.041574882
-0.039376319
-0.04145777
-0.043223107
-0.030077161
-0.029325732
-0.027879726
-0.026167529
-0.02778152
-0.029283781
-0.01862295
-0.01805226
-0.016850221
-0.01553072
-0.016754236
-0.017972495
-0.0088656461
-0.0088134356
-0.0078823959
-0.0065128146
-0.0077269779
-0.0085962255
0.31029703
0.30769835
0.30695912
0.30705955
0.30798481
0.30816523
0.30711796
0.30747127
0.30759624
0.30722223
0.30707868
0.30831625
0.30847267
0.30756445
0.30780222
0.31203216
0.30707519
0.30726989
0.30847903
0.30837116
0.30781052
0.3076227
0.30822983
0.30809068
0.30753101