/*--------------------------------*- C++ -*----------------------------------*\
  =========                 |
  \\      /  F ield         | OpenFOAM: The Open Source CFD Toolbox
   \\    /   O peration     | Website:  https://openfoam.org
    \\  /    A nd           | Version:  8
     \\/     M anipulation  |
\*---------------------------------------------------------------------------*/
FoamFile
{
    version     2.0;
    format      ascii;
    class       surfaceScalarField;
    location    "100";
    object      phi;
}
// * * * * * * * * * * * * * * * * * * * * * * * * * * * * * * * * * * * * * //

dimensions      [0 3 -1 0 0 0 0];

internalField   nonuniform List<scalar> 
215364
(
-3.3123204e-06
0.00099030555
-0.00013503591
-5.7629599e-06
1.2145913e-05
0.0020781755
0.00011833535
-0.001212524
4.4936115e-07
-3.1435545e-06
0.0012152472
-0.0023847437
-1.3819109e-07
3.0680209e-07
-8.9798154e-06
0.002393633
-0.0012180551
-1.8513394e-07
0.0012191519
-8.920413e-07
-0.0024011197
9.7145383e-08
-3.0224116e-08
0.0024046988
-3.5674419e-06
-0.0012240006
-4.1290706e-07
0.0012262291
-1.7938855e-06
-0.0024137188
1.6359776e-07
-1.7002143e-09
0.0024193533
-5.7210282e-06
-0.0012351076
-7.6159191e-07
0.0012389312
-3.0461813e-06
-0.0024357152
2.2090063e-07
8.2191182e-08
0.0024445315
-9.0421656e-06
-0.0012536675
-1.260958e-06
0.0012598595
-4.9050225e-06
-0.0024720027
2.6955169e-07
2.278583e-07
0.0024855243
-1.4010634e-05
-0.0012831274
-1.9724244e-06
0.0012926548
-7.5346955e-06
-0.0025294114
3.8578598e-07
4.2049977e-07
0.0025496558
-2.1080096e-05
-0.0013273577
-2.9075555e-06
0.0013410871
-1.0837361e-05
-0.0026155807
5.2406503e-07
6.6641484e-07
0.002644299
-3.0100848e-05
-0.0013889817
-3.9745315e-06
0.0014070158
-1.408713e-05
-0.0027360479
6.9672929e-07
9.8308364e-07
0.0027736281
-3.9419864e-05
-0.001466013
-4.7742658e-06
0.0014866395
-1.5881385e-05
-0.0028872084
8.227063e-07
1.1475649e-06
0.0029300562
-4.5140282e-05
-0.0015478436
-4.8996683e-06
0.0015669766
-1.4267875e-05
-0.0030483915
1.0145484e-06
9.5034382e-07
0.0030882993
-4.2078049e-05
-0.0016165184
-4.119971e-06
0.0016297054
-9.0974533e-06
-0.0031839554
1.1537308e-06
2.8455605e-07
0.0032116563
-2.9248995e-05
-0.0016579276
-2.8763866e-06
0.0016636473
-2.8644692e-06
-0.0032651474
1.2072189e-06
-5.5947039e-07
0.0032776032
-1.31448e-05
-0.0016711849
-1.7677078e-06
0.0016710255
1.9125866e-06
-0.003290511
1.1939753e-06
-1.1988832e-06
0.003291186
-6.7029486e-07
-0.0016648028
-1.0409104e-06
0.0016613398
4.4912033e-06
-0.0032773278
1.1467101e-06
-1.5340095e-06
0.0032715378
6.194828e-06
-0.0016486251
-5.5579914e-07
0.001643964
5.208638e-06
-0.0032453067
1.0971529e-06
-1.6819442e-06
0.0032371742
8.7428813e-06
-0.0016297239
-2.0371273e-07
0.001625068
4.8541497e-06
-0.0032077738
1.0779598e-06
-1.7314221e-06
0.0031995916
8.8602672e-06
-0.0016116778
-9.5484918e-08
0.0016074594
4.3079112e-06
-0.0031715396
1.1359786e-06
-1.6889739e-06
0.0031641216
7.9942082e-06
-0.0015954253
-2.3966654e-07
0.0015915929
4.0667204e-06
-0.003138425
1.2590842e-06
-1.6284649e-06
0.0031317254
7.0910139e-06
-0.0015802815
-5.5019983e-07
0.0015765003
4.3302843e-06
-0.0031072955
1.6053344e-06
-1.7886304e-06
0.0031006996
6.8000737e-06
-0.0015647112
-1.0165192e-06
0.0015605349
5.1932815e-06
-0.0030755397
2.2246332e-06
-2.2553965e-06
0.0030680074
7.5813907e-06
-0.0015427641
-2.433972e-06
0.0015253633
1.9839567e-05
3.629575e-06
-0.0030279101
-4.0063851e-06
0.0029919587
3.6340597e-05
-9.5309346e-06
-9.6754969e-05
2.5659237e-05
0.0033548825
1.3477188e-05
-2.1114636e-05
-1.614998e-05
1.4320113e-05
0.0029643322
3.9892697e-05
-3.0120156e-05
-9.8830575e-06
7.1200875e-06
0.0028588503
2.7195147e-05
-1.4547279e-05
5.8919815e-08
-2.1213251e-06
0.0027943349
1.393558e-05
-3.6858608e-05
9.9344095e-06
-1.1777851e-05
0.0028850462
3.3296711e-05
-1.5517437e-05
1.6166785e-05
-1.6036618e-05
0.0030170009
3.6913267e-05
9.6763147e-05
9.2028552e-05
0.0022786819
5.9282783e-05
-0.0033908483
1.9034671e-07
3.6910799e-07
3.5258242e-07
1.1118382e-06
0.0033890796
-6.5440314e-06
-0.0114544
-9.5007934e-06
4.0326739e-05
0.011346057
0.00012948473
-1.6961299e-05
-1.2129936e-06
2.7085999e-06
-2.7853854e-05
-2.6204453e-06
1.6752178e-06
-2.118206e-05
-0.011290694
-3.5669278e-05
2.0811715e-05
0.011245003
8.1603607e-05
-1.4317103e-05
5.9438188e-06
9.7762057e-06
1.3705346e-05
-0.011110368
1.9111078e-07
-2.0928079e-05
0.011072499
4.6315151e-05
-2.387846e-05
-0.011432363
-4.0608071e-05
0.011357258
0.00011944207
3.6262112e-05
-2.1632622e-05
3.9396887e-06
2.8798998e-06
-0.0028512818
-4.7950399e-06
9.6349301e-06
-6.3040156e-06
2.2126314e-05
0.0028308813
-0.0024326544
-2.2063769e-07
9.1954259e-07
-1.1350556e-06
0.0024331989
8.8483437e-07
-0.0033904791
8.4773135e-07
-1.4013802e-06
0.0033928691
-2.4753443e-06
4.2751634e-06
1.067433e-06
-0.01129666
-2.1030013e-06
0.011284856
-1.2387369e-05
1.29376e-06
6.4490804e-06
8.9453648e-06
3.7011351e-06
-7.6288453e-06
9.3888033e-06
1.4947392e-06
4.4856595e-07
-0.011208938
4.7557157e-07
0.01119992
-2.123044e-05
2.3890681e-07
1.3670724e-05
1.5285458e-05
3.1925191e-05
-0.011053848
5.871731e-07
-1.2385297e-06
0.011052033
-2.7879032e-05
8.3984439e-07
-0.011310375
1.4078552e-06
0.011298221
-1.4309109e-05
6.5978009e-07
1.8729638e-06
1.2202519e-05
1.0915382e-05
2.9361064e-06
-0.0028206943
-8.4583194e-07
1.3164585e-06
0.0028184752
-9.1148249e-07
-0.0024363232
-5.938997e-07
3.1874771e-07
0.0024385472
-1.8357108e-06
1.8853078e-06
-0.0034057972
1.8288767e-06
-3.3545747e-06
0.0034118606
-6.1933947e-06
1.1503394e-05
5.4999408e-06
-0.011295768
-2.3487313e-05
0.01132442
-7.9280138e-05
1.0412157e-05
1.289624e-05
1.5162906e-05
7.316278e-06
-6.6195418e-07
1.3136611e-05
1.3764742e-05
1.8010642e-05
-0.011208564
-9.6645182e-06
0.011232796
-0.00010464864
1.2735746e-05
2.260182e-05
2.4404045e-05
7.8365676e-05
-0.011062986
8.8454548e-07
8.3556739e-06
0.011087554
-0.00011042495
1.2058375e-05
-0.01130734
2.2381236e-05
0.011333422
-9.3822615e-05
-1.6439752e-05
1.2653511e-05
2.0010748e-05
1.8498155e-05
8.0356142e-06
-0.0028280277
-5.1974676e-06
4.7358039e-06
0.0028305123
-9.8060987e-06
-0.0024486398
-1.4785659e-06
8.0442828e-07
0.0024532051
-3.807271e-06
3.2074328e-06
-0.0034363344
3.150611e-06
-5.8802506e-06
0.0034469544
-1.0917042e-05
2.0558958e-05
1.0474351e-05
-0.011369657
-4.5149703e-05
0.011432777
-0.00015024765
2.0565902e-05
2.1835049e-05
2.4506686e-05
1.2026735e-05
5.2925325e-06
1.8238341e-05
2.8233434e-05
3.5142879e-05
-0.011271788
-1.9049073e-05
0.011327904
-0.00020135258
2.775092e-05
3.6198959e-05
3.8493628e-05
0.00014164612
-0.011125326
1.1560099e-06
1.724048e-05
0.011179619
-0.00021248353
2.4809659e-05
-0.011375405
4.3559197e-05
0.011434819
-0.00018005462
-3.3103447e-05
2.4868626e-05
3.1831229e-05
2.9890929e-05
1.4250986e-05
-0.0028506063
-1.0067244e-05
8.6216781e-06
0.0028573499
-1.9381105e-05
-0.0024713373
-2.6992621e-06
1.4824326e-06
0.0024790549
-6.4575122e-06
5.1337544e-06
-0.0034875985
5.0426792e-06
-9.5353533e-06
0.0035047942
-1.776419e-05
3.3676038e-05
1.754131e-05
-0.011516651
-7.4954205e-05
0.011625012
-0.00024955593
3.4807724e-05
3.495782e-05
3.8572727e-05
1.8895771e-05
1.2966333e-05
2.5907138e-05
4.8682361e-05
5.8508646e-05
-0.011403372
-3.1725704e-05
0.011502979
-0.00033900812
4.8783703e-05
5.6775088e-05
5.988178e-05
0.00023365596
-0.011252225
1.49094e-06
2.9201596e-05
0.011348604
-0.00035904304
4.2701332e-05
-0.0115146
7.2704973e-05
0.011618468
-0.00030137703
-5.5876118e-05
4.2069567e-05
4.9719644e-05
4.7080597e-05
2.3219925e-05
-0.0028906528
-1.7004291e-05
1.4192744e-05
0.0029031525
-3.2829759e-05
-0.0025087978
-4.4904217e-06
2.4957113e-06
0.0025211893
-1.0381985e-05
7.779021e-06
-0.0035686377
7.8929104e-06
-1.4683908e-05
0.0035951347
-2.7336506e-05
5.2229451e-05
2.7442711e-05
-0.011762879
-0.00011685488
0.011935414
-0.00038955492
5.4806332e-05
5.331539e-05
5.8458121e-05
2.839375e-05
2.3585635e-05
3.6839296e-05
7.7655226e-05
9.1346459e-05
-0.011631312
-4.9696295e-05
0.011795497
-0.00053706941
7.8519176e-05
8.6133436e-05
9.047772e-05
0.00036446941
-0.01147304
1.9967792e-06
4.6071879e-05
0.011633358
-0.00057099632
6.7936298e-05
-0.011751983
0.00011376549
0.011920538
-0.00047432375
-8.796846e-05
6.6329964e-05
7.514712e-05
7.1438253e-05
3.585462e-05
-0.0029554753
-2.6757264e-05
2.2033418e-05
0.0029760364
-5.1721561e-05
-0.0025677661
-7.1243298e-06
3.9502272e-06
0.0025866563
-1.5865967e-05
1.0974065e-05
-0.0036899679
1.1450862e-05
-2.1198957e-05
0.0037280321
-3.9283002e-05
7.5778852e-05
3.9907843e-05
-0.012148838
-0.00016993633
0.012407112
-0.00056937095
8.0234766e-05
7.6157739e-05
8.3417369e-05
4.0088918e-05
3.7113454e-05
5.0743417e-05
0.00011490484
0.00013396084
-0.012001954
-7.2413115e-05
0.012258451
-0.00079912297
0.00011682256
0.00012331037
0.00012936576
0.00053316712
-0.011835796
2.99697e-06
6.7995808e-05
0.012089233
-0.00085390697
0.00010026089
-0.012131422
0.00016630707
0.012389825
-0.00070036899
-0.00012887969
9.7336127e-05
0.00010730516
0.00010208861
5.1853112e-05
-0.0030544695
-3.8989865e-05
3.186153e-05
0.0030854205
-7.5753634e-05
-0.0026556228
-1.0443809e-05
5.8258517e-06
0.0026826679
-2.2688913e-05
1.4190057e-05
-0.0038582829
1.4890501e-05
-2.7668605e-05
0.0039080938
-5.1401268e-05
9.9746793e-05
5.2147321e-05
-0.012712497
-0.00022449809
0.013064007
-0.00075868893
0.00010640881
9.8500189e-05
0.00010828829
5.1026932e-05
5.0934999e-05
6.460965e-05
0.00015375198
0.00017759042
-0.012567824
-9.6352662e-05
0.01293264
-0.0010855976
0.0001570192
0.00016069347
0.00016873903
0.00070931916
-0.012396546
3.7689243e-06
8.9783988e-05
0.012761254
-0.0011668094
0.00013392295
-0.012699121
0.00021942526
0.013059421
-0.00094406956
-0.00017128804
0.00012932351
0.00013969313
0.00013258537
6.8340036e-05
-0.0031952242
-5.1133243e-05
4.1607668e-05
0.0032369126
-0.00010087937
-0.0027771066
-1.3776504e-05
7.7696367e-06
0.002812376
-2.96436e-05
1.6028123e-05
-0.0040680781
1.6731103e-05
-3.142561e-05
0.0041249353
-5.8607206e-05
0.00011383789
5.8666372e-05
-0.013453064
-0.00025482874
0.013863478
-0.00087139725
0.00012238578
0.00010972708
0.00012163896
5.5674353e-05
5.9301173e-05
7.2221289e-05
0.00017728025
0.00020200406
-0.013347241
-0.00010985563
0.013802977
-0.0012790395
0.00018182782
0.00017996191
0.00018960718
0.00081230516
-0.013181628
4.4467389e-06
0.00010098227
0.013649176
-0.0013881247
0.00015468125
-0.01346281
0.00024861282
0.013896733
-0.0010994661
-0.00019473136
0.00014856008
0.00015710809
0.00014837518
7.869469e-05
-0.0033750382
-5.7604448e-05
4.6980799e-05
0.0034232769
-0.00011693619
-0.0029276092
-1.5688909e-05
9.025202e-06
0.0029676268
-3.3872472e-05
1.4729727e-05
-0.0042915072
1.5151737e-05
-2.901503e-05
0.0043445097
-5.4400622e-05
0.00010437432
5.2505037e-05
-0.014273943
-0.00023284637
0.014657413
-0.00080077918
0.00011326732
9.7401329e-05
0.00010965991
4.8115444e-05
5.4654023e-05
6.6526939e-05
0.00016193179
0.00018706526
-0.01427684
-0.0001025924
0.014730032
-0.0011998608
0.00016708427
0.00015962269
0.00016948246
0.00074338101
-0.01413929
5.4358752e-06
9.1834109e-05
0.014604885
-0.0013106516
0.00014251667
-0.014340669
0.00022659958
0.014762163
-0.0010238674
-0.00017966924
0.00013601264
0.00014085736
0.00013180968
7.4211296e-05
-0.0035699536
-5.1508906e-05
4.2581861e-05
0.0036140333
-0.00011003014
-0.0030869115
-1.423868e-05
8.5731269e-06
0.0031241971
-3.2027357e-05
9.7880613e-06
-0.0044809717
1.0198746e-05
-2.0067949e-05
0.0045178873
-3.7286665e-05
6.9417837e-05
3.2938564e-05
-0.014988471
-0.00016045159
0.015246448
-0.00053041015
7.6808984e-05
6.2195065e-05
7.2778759e-05
2.9109942e-05
3.7146497e-05
4.9257718e-05
0.00010518477
0.0001311295
-0.015112548
-7.6791412e-05
0.015376848
-0.00075079498
0.0001101191
0.00010232837
0.0001109677
0.00049178282
-0.014985115
9.602681e-06
5.9336415e-05
0.015232317
-0.00081170608
9.5217926e-05
-0.01512788
0.00015370127
0.015400894
-0.00067224309
-0.00012031625
8.9485711e-05
9.2810887e-05
8.4670545e-05
5.2842919e-05
-0.0037345403
-3.2053184e-05
2.7582299e-05
0.0037627532
-7.7159949e-05
-0.0032217101
-9.2877023e-06
6.2641535e-06
0.0032478641
-2.3380209e-05
3.2732846e-06
-0.004597199
4.2586442e-06
-8.8196905e-06
0.00461338
-1.5158494e-05
2.6105824e-05
9.2770741e-06
-0.015419618
-7.4839261e-05
0.015507568
-0.00018522321
3.119178e-05
2.1581933e-05
2.959886e-05
7.98591e-06
1.5503871e-05
2.8901638e-05
3.8302479e-05
6.8777636e-05
-0.015514352
-4.9471481e-05
0.015533467
-0.00020495131
4.1900155e-05
3.8952996e-05
4.5208809e-05
0.00018864604
-0.015344511
1.7614785e-05
1.7784977e-05
0.015330909
-0.0002127524
3.7591108e-05
-0.01556555
6.3868321e-05
0.015625145
-0.00021858865
-4.782043e-05
3.3319396e-05
3.8210238e-05
3.1705275e-05
2.4882878e-05
-0.0038323989
-8.2110298e-06
8.9221742e-06
0.0038416438
-3.5147588e-05
-0.0033047512
-3.3052842e-06
3.3042065e-06
0.0033165372
-1.184307e-05
-2.1013886e-06
-0.0046359771
-1.5010247e-07
3.9124185e-08
0.004635589
2.4522961e-06
-6.5021597e-06
-6.8131058e-06
-0.015520392
-1.0746357e-05
0.015471015
7.9644458e-05
-3.8614269e-06
-7.5916012e-06
-2.3327242e-06
-5.2386575e-06
-1.3546593e-06
1.3186932e-05
-1.3051411e-05
1.7830615e-05
-0.015452371
-2.7790181e-05
0.015293593
0.00020640069
-1.1653222e-05
-8.671755e-06
-5.3791233e-06
-4.9060048e-05
-0.015214421
2.7280649e-05
-2.1749408e-05
0.015023127
0.00023369521
-6.4914931e-06
-0.015594557
-9.1189519e-06
0.015489503
0.00011989457
1.805883e-05
-8.8502459e-06
-2.4722008e-06
-6.8438059e-06
2.4201975e-06
-0.0038620103
8.4661233e-06
-4.8942864e-06
0.0038573297
-1.3923171e-06
-0.0033330111
1.1552416e-06
8.7051055e-07
0.0033331872
-2.1246142e-06
-5.1858962e-06
-0.0046197312
-2.2407396e-06
4.7974547e-06
0.0046098928
1.2393605e-05
-2.4326598e-05
-1.3242291e-05
-0.015373119
2.6380759e-05
0.015237329
0.00023411133
-2.405428e-05
-2.3058734e-05
-2.0432108e-05
-9.9860237e-06
-1.2532579e-05
2.5074218e-06
-4.1839519e-05
-8.7814174e-06
-0.015083062
-1.822508e-05
0.014842586
0.00042132911
-4.2957178e-05
-3.5087708e-05
-3.4465695e-05
-0.00017911232
-0.014785139
3.6736781e-05
-4.9562415e-05
0.014524995
0.00045162293
-3.2402785e-05
-0.015329056
-5.823781e-05
0.015131422
0.00031356971
6.1244965e-05
-3.2529861e-05
-2.6108681e-05
-2.8116524e-05
-1.0692904e-05
-0.0038447491
1.6066314e-05
-1.1404019e-05
0.0038320458
1.8740503e-05
-0.0033220975
3.3079374e-06
-6.4802745e-07
0.003315549
3.9946482e-06
-6.2620595e-06
-0.0045754223
-2.5508731e-06
6.1955514e-06
0.0045620376
1.5994332e-05
-3.1396029e-05
-1.342077e-05
-0.015075055
3.8796576e-05
0.014896669
0.00030700955
-3.3256719e-05
-2.9132343e-05
-2.8687482e-05
-9.6457081e-06
-1.8759287e-05
-3.2599297e-06
-5.3970747e-05
-1.7367337e-05
-0.014591172
-1.522238e-05
0.014341704
0.00048576178
-5.6774613e-05
-4.6126752e-05
-4.7024297e-05
-0.00023836675
-0.014261856
4.4940783e-05
-6.8988285e-05
0.014007016
0.00051713231
-4.3245543e-05
-0.014913017
-8.443359e-05
0.014687512
0.00038126478
8.5778214e-05
-4.1408447e-05
-3.6096247e-05
-3.6260714e-05
-1.6080795e-05
-0.0038005345
1.7970187e-05
-1.2723641e-05
0.0037835648
2.7866433e-05
-0.0032909137
3.7119042e-06
-1.378591e-06
0.0032817594
6.9291592e-06
-6.188254e-06
-0.0045226578
-2.0603397e-06
5.636755e-06
0.0045091646
1.6132654e-05
-3.2242638e-05
-1.0897585e-05
-0.01471068
3.7872901e-05
0.014524399
0.00032001188
-3.5572478e-05
-2.9930755e-05
-3.0819459e-05
-7.3635602e-06
-2.0232122e-05
-4.5205435e-06
-5.7190349e-05
-1.5761967e-05
-0.014102771
-1.7892175e-05
0.013879844
0.00047505059
-6.0953774e-05
-4.9348472e-05
-5.0998774e-05
-0.00025280794
-0.013767463
5.1620309e-05
-8.003842e-05
0.013546713
0.00050201623
-4.5563424e-05
-0.014464189
-9.7094298e-05
0.01424959
0.00037690715
9.8503166e-05
-4.2734781e-05
-3.8070675e-05
-3.7155765e-05
-1.7226631e-05
-0.0037414175
1.7648668e-05
-1.1919383e-05
0.0037223073
3.0661372e-05
-0.0032535834
3.3926167e-06
-1.6787074e-06
0.0032443128
7.6327875e-06
-5.6018552e-06
-0.0044714704
-1.4603151e-06
4.4194643e-06
0.0044590067
1.5162341e-05
-3.0646772e-05
-8.1589402e-06
-0.014342455
3.0753273e-05
0.014168912
0.0003026835
-3.4894119e-05
-2.863952e-05
-3.0151467e-05
-5.0796303e-06
-1.8989823e-05
-3.2369585e-06
-5.7231659e-05
-9.3733421e-06
-0.013675544
-2.2491546e-05
0.013491074
0.00043421767
-6.1013737e-05
-4.9075284e-05
-5.0498003e-05
-0.00024183384
-0.013346406
5.6910245e-05
-8.646077e-05
0.013166918
0.00045096797
-4.4904321e-05
-0.014048178
-0.00010252831
0.013862662
0.00034330261
0.00010431604
-4.1335148e-05
-3.7258601e-05
-3.5879228e-05
-1.6946477e-05
-0.0036748663
1.7406691e-05
-1.1367923e-05
0.0036550045
3.0822676e-05
-0.0032177809
3.0478416e-06
-1.799581e-06
0.0032093854
7.156138e-06
-5.0469192e-06
-0.0044243978
-8.4502021e-07
3.1596572e-06
0.0044128188
1.436158e-05
-2.9224151e-05
-6.1129654e-06
-0.014006764
2.0828057e-05
0.013858469
0.00027428838
-3.3997845e-05
-2.749495e-05
-2.8881286e-05
-3.2888749e-06
-1.6984627e-05
-7.2674238e-07
-5.5214411e-05
-3.8639249e-07
-0.013326744
-2.8513461e-05
0.013182441
0.00038019247
-5.8649315e-05
-4.6137224e-05
-4.6895329e-05
-0.0002204103
-0.013007722
6.0975035e-05
-8.9045251e-05
0.012868403
0.0003879126
-4.3203868e-05
-0.013694325
-0.00010356422
0.013544366
0.00029921205
0.00010527282
-3.9434676e-05
-3.4782408e-05
-3.3371484e-05
-1.6361538e-05
-0.0036070513
1.7828504e-05
-1.1836007e-05
0.0035877915
2.9666662e-05
-0.0031858009
2.9381928e-06
-1.8503384e-06
0.0031782904
6.3904255e-06
-4.8473418e-06
-0.0043798321
-8.2685439e-08
2.0566234e-06
0.0043685478
1.4166259e-05
-2.8380659e-05
-4.4179994e-06
-0.013726632
7.2417184e-06
0.013615078
0.00023661113
-3.3661718e-05
-2.6446432e-05
-2.6758161e-05
-1.3477806e-06
-1.4708898e-05
3.5390169e-06
-5.2413033e-05
1.2172275e-05
-0.013058518
-3.6990616e-05
0.012955992
0.00031719508
-5.55503e-05
-4.0842827e-05
-4.0939629e-05
-0.0001956533
-0.012748599
6.4035618e-05
-8.728746e-05
0.012648069
0.00031955047
-4.09919e-05
-0.013414116
-9.9161749e-05
0.013306001
0.00024431413
0.00010067343
-3.7290514e-05
-3.0171768e-05
-2.9108133e-05
-1.5764964e-05
-0.0035436525
1.8468784e-05
-1.2779374e-05
0.0035261643
2.7597416e-05
-0.0031567431
3.1418036e-06
-1.9987804e-06
0.0031496224
5.9594128e-06
-5.1949131e-06
-0.0043367399
9.1533971e-07
9.6036383e-07
0.0043261855
1.3875727e-05
-2.6454493e-05
-1.4600984e-06
-0.01353157
-2.1420302e-05
0.013493338
0.00015548273
-3.2879394e-05
-2.2714481e-05
-1.9271421e-05
3.4964794e-06
-1.0897336e-05
1.4552734e-05
-4.9439326e-05
3.8205011e-05
-0.012878309
-5.39628e-05
0.01283473
0.00022408287
-5.2914239e-05
-3.04376e-05
-3.1769582e-05
-0.00017150548
-0.012567372
6.6362803e-05
-7.5639795e-05
0.012509805
0.00023854744
-3.8241379e-05
-0.013225887
-7.8407927e-05
0.013188107
0.00014644772
8.1256711e-05
-3.4675215e-05
-1.9537815e-05
-1.8849225e-05
-1.3960243e-05
-0.0034916478
1.7683402e-05
-1.2705832e-05
0.0034784284
2.2231994e-05
-0.0031284911
3.7216996e-06
-2.3870634e-06
0.00312142
5.7255978e-06
-1.0000263e-05
-6.8463162e-07
-0.0042992955
3.4459848e-06
0.0042869272
1.9614531e-05
-1.7732361e-05
1.4080973e-05
-8.1975874e-05
-3.1862853e-05
-2.3337843e-05
-5.0481765e-06
1.8764055e-05
-0.013523758
0.0034752078
0.0034230723
0.0033725296
0.0032974642
2.5008225e-05
9.974511e-06
4.7813293e-05
-3.2610754e-05
9.7715723e-05
-8.2367954e-05
0.00012465379
0.0032750939
0.0032217121
0.0031033666
0.0031380156
-0.012804269
-4.7608134e-05
1.2540468e-05
-6.0349132e-06
-0.00016880628
6.8367672e-05
-5.156651e-05
0.00017072676
0.003153746
0.0031752045
0.0030719351
0.0030590019
-0.012478402
-1.2027992e-05
2.7280586e-05
-2.5250332e-05
5.0933452e-06
-0.013182753
0.003337242
0.0033694855
0.0032287224
0.0031859188
-1.2419767e-05
4.005032e-05
3.8862902e-05
-1.0036297e-05
-0.0034830356
4.3594663e-06
-3.9240437e-06
0.0035060423
-1.336875e-05
7.5871916e-06
-0.0031000927
-7.5794218e-06
0.0030854084
1.4673573e-05
-2.2239523e-05
-2.1270891e-05
1.6123885e-05
0.0030824612
1.6018215e-05
-3.6196049e-05
-2.7343672e-05
0.0028576511
2.1727358e-05
2.8880721e-05
-1.8911787e-05
-8.9593507e-06
0.0027801124
5.9042445e-06
1.0486505e-05
-6.6105119e-06
-1.9766422e-06
1.1676011e-06
0.002762116
3.1440724e-06
-3.267761e-06
1.3874253e-08
-3.3749482e-07
0.0027588038
1.4416051e-06
-8.6344332e-06
1.9974068e-06
-2.701836e-06
0.0027638294
4.248055e-06
-2.379796e-05
8.9780246e-06
-1.2078621e-05
0.0027903513
1.3962145e-05
-3.4874639e-05
2.7331754e-05
-2.9237013e-05
0.0029008956
3.3537472e-05
-2.5626425e-05
2.1639592e-05
-8.1924688e-07
0.0031928535
2.4530579e-05
-0.0028944089
-9.9938998e-07
-1.2717122e-06
6.445756e-06
6.4599147e-06
0.0028840038
-0.0001166959
-0.011357283
-9.1316644e-05
9.458726e-05
0.011344536
0.00012747355
-0.011222836
-0.00013119539
-7.6078411e-05
5.4416165e-05
0.01127934
9.7924444e-05
-0.01111782
-7.5046979e-05
-3.4275409e-05
1.6514627e-05
0.011160858
5.1348917e-05
-0.011090783
-5.3510142e-05
4.2099702e-07
-1.6857872e-05
0.011124664
3.7685918e-05
-0.011160909
-0.00010503234
3.5087109e-05
-5.4654905e-05
0.011213764
7.3452559e-05
-0.00014348199
-0.011291538
7.6725001e-05
-9.4505266e-05
0.01133637
0.00011822374
-0.011520093
-3.0111154e-05
0.011418754
0.00011313146
9.0781007e-05
-1.1339341e-05
-1.7941093e-06
-2.7451396e-06
-1.4233307e-05
-4.1669056e-05
-2.6792413e-06
3.4213202e-06
-0.0032360928
5.7906593e-07
1.6995157e-06
4.7606846e-08
1.5456982e-06
0.003232484
2.0019294e-06
2.0799463e-06
-0.0028776871
-2.3446502e-06
0.002878442
-2.2686542e-06
6.0089546e-06
1.9021749e-06
-0.011303839
6.8868324e-06
0.011281352
9.229481e-06
-3.874929e-06
-0.011309356
-1.0833095e-05
9.8704681e-06
0.011305579
1.0468499e-05
1.154453e-05
-0.011189341
-6.1007811e-06
3.4123572e-06
0.011205091
-2.280989e-05
2.1971044e-05
-0.011147799
7.2435924e-07
-4.2590254e-06
0.011164213
-3.2956832e-05
6.9169465e-07
-0.011248698
7.4449588e-06
-1.0522173e-05
0.011259186
-6.0645769e-06
-6.9142345e-07
-0.011336442
1.1972225e-05
-7.4452332e-06
0.011318964
1.5769043e-05
5.5828875e-08
-0.011354893
0.011331313
-2.9393718e-06
-1.7381165e-06
3.8143252e-06
6.170445e-06
6.4721738e-06
2.1579785e-06
6.8981237e-06
1.3509286e-05
-9.2753851e-06
1.0254893e-06
-0.0032334859
-1.658492e-06
7.1148557e-07
0.0032350514
-1.3966047e-06
4.7858674e-06
4.9041044e-06
-0.0028878097
-7.1155126e-06
0.0028924923
-7.0344914e-06
6.7356874e-05
5.3099605e-05
-0.011281193
-5.5972527e-05
0.011300204
-8.1664271e-05
0.00010210461
-0.011302642
5.4031866e-05
-4.5585309e-05
0.011312174
-0.00011787223
0.00013032019
-0.01120482
3.3660234e-05
-1.7819638e-05
0.011209543
-0.00014887089
0.00013748612
-0.011166439
1.0627102e-06
1.6396642e-05
0.011170537
-0.00015690578
0.00011796592
-0.011257489
-3.1742241e-05
4.4510277e-05
0.011264146
-0.0001350868
8.6294838e-05
-0.011316696
-5.2456087e-05
5.5126378e-05
0.01133055
-0.00010040373
1.247024e-05
-0.01133668
0.011359587
-6.3927237e-05
-5.2614616e-05
1.1933534e-05
1.2868203e-05
1.3307074e-05
9.5297805e-06
1.3023493e-05
1.9654332e-05
2.3543871e-06
1.9725694e-06
-0.0032480887
-4.4113398e-06
1.5353485e-06
0.0032532138
-3.9724972e-06
8.3095936e-06
8.4555466e-06
-0.0029125109
-1.2720162e-05
0.0029213514
-1.2619825e-05
0.0001294767
0.00010407934
-0.011335241
-0.00011633447
0.011388836
-0.00016873826
0.00020796394
-0.011332745
0.00011678973
-0.00010228729
0.011368136
-0.00025513127
0.00026580602
-0.011219892
7.6756124e-05
-4.1273026e-05
0.011240085
-0.00031908294
0.00027910051
-0.011178589
1.4409231e-06
3.9228017e-05
0.01119514
-0.00033382466
0.00024155146
-0.011278756
-7.4181554e-05
0.00010073451
0.011305479
-0.00029220833
0.00017179999
-0.011357877
-0.00011469317
0.00011517502
0.011402486
-0.00021409884
2.3697063e-05
-0.011403133
0.011462784
-0.00012466321
-0.00010332056
2.1195044e-05
2.2501864e-05
2.2320317e-05
1.7844193e-05
2.1113908e-05
2.8471331e-05
1.2593707e-05
3.195919e-06
-0.0032774451
-7.8976472e-06
2.6472645e-06
0.0032868599
-7.1853563e-06
1.3386814e-05
1.3542787e-05
-0.002955173
-2.0711193e-05
0.0029698178
-2.0599829e-05
0.00021479282
0.00017343375
-0.011461767
-0.00019754389
0.011560265
-0.00028647521
0.00035415281
-0.01141894
0.00020139495
-0.00017920721
0.011492684
-0.00044666947
0.00045981718
-0.011271391
0.00013571556
-7.3409964e-05
0.011321308
-0.00056893901
0.00048444989
-0.01122149
1.956242e-06
7.0562253e-05
0.011265211
-0.00059751388
0.00041513528
-0.011345235
-0.00013223745
0.00017704828
0.011405558
-0.000517055
0.0002887427
-0.011464358
-0.00019863196
0.00019606985
0.011551141
-0.00036937068
3.8373187e-05
-0.011546539
0.011652478
-0.00020719626
-0.00017233953
3.4287617e-05
3.6978896e-05
3.5422947e-05
2.9615306e-05
3.2883044e-05
4.1791846e-05
2.5894369e-05
4.9396962e-06
-0.0033266025
-1.2967885e-05
4.3205622e-06
0.0033421997
-1.1807064e-05
2.0459877e-05
2.064579e-05
-0.0030233697
-3.1903156e-05
0.0030460315
-3.1753847e-05
0.00033404795
0.00027037645
-0.011687356
-0.00031206695
0.011852393
-0.00045333769
0.00056436506
-0.011593202
0.00032283264
-0.00029140301
0.011732846
-0.0007312412
0.00074737199
-0.011394769
0.00022303025
-0.00012152975
0.011505651
-0.00095587953
0.00079122441
-0.011331272
2.734856e-06
0.00011750965
0.011433973
-0.0010100839
0.00066901684
-0.011490994
-0.00021828887
0.00028852137
0.011614746
-0.00085902426
0.00045416021
-0.011665411
-0.00031926607
0.00031036793
0.011818936
-0.0005944649
5.8511204e-05
-0.011791119
0.011962192
-0.00032229937
-0.00026864728
5.2529272e-05
5.7307063e-05
5.349074e-05
4.5987545e-05
4.9133385e-05
6.05608e-05
4.4092729e-05
7.3923132e-06
-0.003404204
-2.0013143e-05
6.6484434e-06
0.0034283954
-1.8279654e-05
2.9204946e-05
2.9455801e-05
-0.00312575
-4.585605e-05
0.0031585037
-4.5706749e-05
0.00048558067
0.00039313478
-0.012059139
-0.00046167882
0.012318177
-0.00067325036
0.00084568991
-0.011920033
0.00048558546
-0.00044613238
0.012171628
-0.0011334001
0.0011488608
-0.011665872
0.0003460859
-0.000190333
0.011897435
-0.0015330166
0.0012242218
-0.01158555
3.9430277e-06
0.00018438216
0.011811173
-0.0016347681
0.0010173253
-0.011787447
-0.0003395386
0.00044224801
0.01202821
-0.0013572417
0.00066983307
-0.012016927
-0.00048130385
0.0004594348
0.012274061
-0.00090153285
8.3913028e-05
-0.012177049
0.012434454
-0.00046902447
-0.00039120726
7.5388022e-05
8.26785e-05
7.5618672e-05
6.6518586e-05
6.9045251e-05
8.4121683e-05
6.7028159e-05
1.0394941e-05
-0.0035201128
-2.881984e-05
9.6115158e-06
0.0035551466
-2.6368921e-05
3.7939498e-05
3.8256131e-05
-0.0032686855
-5.9943194e-05
0.0033118661
-5.975174e-05
0.00064288362
0.0005196502
-0.012632235
-0.00062156827
0.013004401
-0.00091336633
0.0011590431
-0.012499066
0.00066476559
-0.00062379303
0.012933121
-0.001634933
0.0016328509
-0.01224582
0.00049433426
-0.00027849783
0.012774382
-0.0023785324
0.0017603827
-0.012168291
4.7489361e-06
0.00026976486
0.012713229
-0.0025809378
0.0014215887
-0.012362261
-0.00048731464
0.00061869725
0.012848982
-0.0020404134
0.00090175121
-0.012595845
-0.00066081982
0.00061905334
0.012991848
-0.0012554611
0.00011008094
-0.01274344
0.013096602
-0.00062150894
-0.00051809506
9.8488765e-05
0.00010794633
9.7025017e-05
8.7254781e-05
8.8336779e-05
0.00010782487
9.0676938e-05
1.3346585e-05
-0.0036806673
-3.7705942e-05
1.261504e-05
0.0037266468
-3.4550143e-05
4.2945508e-05
4.3304819e-05
-0.0034479034
-6.8298445e-05
0.0034973427
-6.8098234e-05
0.00073596172
0.00059254515
-0.013428046
-0.00072172439
0.01389295
-0.001074838
0.0013867273
-0.013504592
0.00079696271
-0.00078572855
0.014166669
-0.0020640886
0.0020513221
-0.013434894
0.00064539735
-0.00037362159
0.014057228
-0.0029489448
0.0022269392
-0.013360775
1.8597287e-05
0.00034121672
0.013935007
-0.0031644417
0.0017554325
-0.013490899
-0.00062620009
0.00077725775
0.014164266
-0.0025835117
0.0010504526
-0.013472831
-0.00079532485
0.00072045184
0.014037116
-0.0015432706
0.00012622704
-0.013490813
0.013904858
-0.00071273727
-0.00059270878
0.0001115382
0.00012144158
0.00010712747
9.8874792e-05
9.7454684e-05
0.00012090652
0.00010504311
1.5008909e-05
-0.003879981
-4.2776822e-05
1.4275083e-05
0.0039323267
-3.9546079e-05
3.9746104e-05
4.0119681e-05
-0.0036397483
-6.338586e-05
0.0036859554
-6.3196137e-05
0.00067451484
0.00054125529
-0.014378527
-0.00067839456
0.014844245
-0.001007515
0.0012973328
-0.014788608
0.00076709391
-0.0007362337
0.015221487
-0.0017654386
0.00182851
-0.014488582
0.00058472106
-0.00034916091
0.014653131
-0.0022321739
0.0019674673
-0.014308297
6.2372944e-05
0.00023600894
0.014411884
-0.0023728559
0.0016153533
-0.01469667
-0.0005037983
0.00069083032
0.01497816
-0.0020876758
0.00098080195
-0.01463473
-0.00075225983
0.00067643212
0.015155825
-0.0014308096
0.00011819949
-0.014321242
0.014706456
-0.00065508598
-0.00054384793
0.00010195636
0.00010973649
9.456593e-05
9.0045197e-05
8.6123131e-05
0.00011098015
9.7343502e-05
1.3856904e-05
-0.0040914798
-3.9699027e-05
1.3351326e-05
0.0041402712
-3.708331e-05
2.7397614e-05
2.7733685e-05
-0.0038027282
-4.373883e-05
0.0038343917
-4.3576859e-05
0.0004489094
0.00036327584
-0.015236136
-0.00045623965
0.015501279
-0.00062492676
0.00076991672
-0.015396414
0.00047391355
-0.00041307044
0.015316748
-0.00075427428
0.00088907877
-0.014551144
0.00031581447
-0.00021226587
0.014236587
-0.0006806197
0.00092516846
-0.01426248
0.00010673252
1.3020422e-05
0.013912959
-0.00069794948
0.00089347156
-0.014982048
-0.00015603152
0.00030486752
0.014749547
-0.00081266735
0.00063827982
-0.015503113
-0.0004192433
0.00043873702
0.015631109
-0.00078963064
8.3455894e-05
-0.015042898
0.015300558
-0.00043958974
-0.00036418307
6.7707738e-05
7.2982908e-05
5.9906914e-05
5.9041421e-05
5.49386e-05
7.8219173e-05
6.5485179e-05
9.791735e-06
-0.0042711322
-2.7402354e-05
9.3929112e-06
0.004305225
-2.6424006e-05
1.1451331e-05
1.1800695e-05
-0.0039015024
-1.8496125e-05
0.0039146333
-1.8261951e-05
0.00016635882
0.00014972434
-0.015621323
-0.00015988017
0.01560055
-0.00013784183
0.00012265457
-0.015050377
0.00011306389
-6.1003663e-05
0.01467276
0.00020112212
-5.6174158e-05
-0.013790757
4.66794e-05
-7.8242813e-05
0.01329492
0.00058215456
-8.2227615e-05
-0.013439296
0.00013216771
-0.00017365603
0.012928117
0.00063344537
7.5016113e-05
-0.014365208
0.00016742314
-9.9266791e-05
0.013909038
0.00031135461
0.00020457595
-0.015553366
-1.4307554e-05
0.00011528932
0.015320303
-7.4818514e-05
3.9569463e-05
-0.015479688
0.015567842
-0.00017116232
-0.00014103154
2.5686284e-05
3.0039377e-05
2.0607787e-05
2.0971184e-05