/*--------------------------------*- C++ -*----------------------------------*\
  =========                 |
  \\      /  F ield         | OpenFOAM: The Open Source CFD Toolbox
   \\    /   O peration     | Website:  https://openfoam.org
    \\  /    A nd           | Version:  8
     \\/     M anipulation  |
\*---------------------------------------------------------------------------*/
FoamFile
{
    version     2.0;
    format      ascii;
    class       volVectorField;
    location    "100";
    object      U;
}
// * * * * * * * * * * * * * * * * * * * * * * * * * * * * * * * * * * * * * //

dimensions      [0 1 -1 0 0 0 0];

internalField   nonuniform List<vector> 
72028
(
(0.00081466826 1.0011362 0.0025571326)
(-2.7239112e-05 0.99998945 -3.3328035e-05)
(5.6440774e-07 1.0027743 1.5463001e-05)
(-4.8887551e-05 1.0010551 -0.00024339402)
(-7.8264425e-05 1.0052683 -0.00017011666)
(-4.7408469e-05 1.0040928 -0.00053085868)
(-0.00017850294 1.0107949 -0.00033058665)
(-5.3443848e-05 1.0098729 -0.00094109508)
(-0.00032684916 1.0206572 -0.00056074457)
(-5.4890156e-05 1.0197749 -0.0015715193)
(-0.00055474141 1.0369334 -0.00089199421)
(-5.3202812e-05 1.0359131 -0.0025488832)
(-0.00087562275 1.0625852 -0.0013559461)
(-5.5667144e-05 1.0612697 -0.0039297983)
(-0.0012982512 1.1007827 -0.0019372009)
(-7.1103217e-05 1.0990192 -0.0056536965)
(-0.0018279189 1.1534229 -0.0024975785)
(-8.6137611e-05 1.1512242 -0.0074436214)
(-0.002309253 1.2181767 -0.0027813839)
(-0.00013145212 1.2156165 -0.0085376199)
(-0.0025666602 1.2853138 -0.0024824422)
(-0.00025134752 1.2825951 -0.0079398075)
(-0.0024417362 1.3397176 -0.0016227643)
(-0.00042036829 1.3369069 -0.0054763088)
(-0.0020442029 1.3708197 -0.00062397129)
(-0.00054903566 1.3676777 -0.0024060146)
(-0.0015792531 1.3792337 0.00016279627)
(-0.00059595584 1.375714 -1.7794921e-05)
(-0.0012109114 1.3724879 0.00059696888)
(-0.00058963096 1.3687326 0.0013292288)
(-0.00088420837 1.3585577 0.00076611718)
(-0.00058190723 1.3547794 0.001894188)
(-0.00059380068 1.3429186 0.00074983385)
(-0.00057617562 1.3390339 0.0019625375)
(-0.00041624688 1.3281744 0.0006699423)
(-0.00058226639 1.3240247 0.0017570032)
(-0.00038244417 1.3148865 0.00059884024)
(-0.00062844668 1.3102951 0.0015560865)
(-0.00049072225 1.302323 0.00061441709)
(-0.00076539928 1.2972093 0.001502018)
(-0.00077217284 1.2890772 0.00073721448)
(-0.0010294912 1.2837001 0.0016619378)
(-0.0012581173 1.2740004 0.00091678301)
(-0.0014139891 1.2687835 0.0018896818)
(-0.00015269994 1.0000975 0.00066993483)
(-6.1361546e-05 1.0000199 -0.00011726261)
(-4.6317156e-05 1.000023 -0.00021497188)
(4.6386249e-06 1.0000221 -0.0002440245)
(5.0850683e-05 1.0000197 -0.00020742932)
(4.1948472e-05 1.0000211 -0.00011937736)
(-0.00026691327 0.99987923 -0.00014071981)
(-0.00024212515 1.001498 -0.00030192795)
(-0.00079406889 1.001233 -0.0019547047)
(-0.00048504034 1.0010917 -0.0027692208)
(0.00013864717 1.0010442 -0.0028955051)
(0.00065133274 1.0011436 -0.0024448097)
(0.00057682195 1.0010686 -0.0011510472)
(0.00014640489 1.0010531 -0.00030423117)
(-0.00057758402 1.0045032 -0.00078636028)
(-0.0017090871 1.0040983 -0.0042275174)
(-0.001018633 1.0036262 -0.0059460504)
(0.00030214566 1.0034942 -0.0061869562)
(0.0013846668 1.0038356 -0.005242792)
(0.0013416417 1.0039338 -0.0024716592)
(0.00028871444 1.0043788 -0.00052821392)
(-0.0010656234 1.0102661 -0.0014849439)
(-0.0030631217 1.0095203 -0.0075996505)
(-0.0018117333 1.008449 -0.010697087)
(0.00054886383 1.0081524 -0.011135261)
(0.0025087418 1.0089448 -0.0094117449)
(0.0024213979 1.0094586 -0.0044357274)
(0.00053869803 1.0103603 -0.00085858496)
(-0.001816355 1.0201786 -0.0025278402)
(-0.0051563892 1.0188779 -0.012791155)
(-0.0030391677 1.0168752 -0.018073127)
(0.00094740699 1.016316 -0.018841198)
(0.0042635558 1.0177942 -0.015860152)
(0.0040286849 1.0189135 -0.0074314469)
(0.0009501342 1.020479 -0.0013904209)
(-0.0029313306 1.0363866 -0.0040910244)
(-0.0083433155 1.0343742 -0.020626974)
(-0.0049151865 1.0310868 -0.029340622)
(0.0015623462 1.0301588 -0.03066452)
(0.006937874 1.0325819 -0.025648456)
(0.0064451371 1.0344428 -0.011947215)
(0.0015606487 1.0368957 -0.0021911204)
(-0.0045283423 1.061765 -0.0062694883)
(-0.012917301 1.0591874 -0.03175956)
(-0.007644254 1.0544444 -0.045626876)
(0.0024533874 1.0531038 -0.047844474)
(0.01080316 1.0565909 -0.039693454)
(0.0098368622 1.0590594 -0.01835707)
(0.002444884 1.0625219 -0.0032887781)
(-0.0065636944 1.0994126 -0.008999309)
(-0.018786029 1.0972428 -0.045855317)
(-0.011203977 1.0915988 -0.066719054)
(0.00360833 1.0900294 -0.070302288)
(0.015775277 1.0941444 -0.057716017)
(0.013968732 1.0962152 -0.026465145)
(0.0035677793 1.1003995 -0.0046338666)
(-0.0086005692 1.151051 -0.011826808)
(-0.024804991 1.151537 -0.060164251)
(-0.014937936 1.1469961 -0.088813455)
(0.0047596338 1.1457646 -0.094182709)
(0.020869864 1.1490358 -0.076382006)
(0.017831029 1.148337 -0.034820367)
(0.0046989002 1.1521958 -0.0059788443)
(-0.0098083377 1.214379 -0.013617256)
(-0.028218654 1.2204416 -0.067981964)
(-0.017119772 1.2209211 -0.10060395)
(0.0053361034 1.2215967 -0.10717955)
(0.023649202 1.2203863 -0.086624849)
(0.019520051 1.2137218 -0.040024346)
(0.0053479949 1.2153302 -0.0067520445)
(-0.0091448878 1.2802353 -0.012890991)
(-0.0258184 1.293291 -0.060622961)
(-0.016237664 1.3055497 -0.090763987)
(0.0048151628 1.3102187 -0.098705862)
(0.021686783 1.2989643 -0.077353478)
(0.016814481 1.28271 -0.037602492)
(0.0048720778 1.2806427 -0.0063218515)
(-0.0065214335 1.3342039 -0.0092344697)
(-0.01778396 1.3527145 -0.039452057)
(-0.011883099 1.3746477 -0.060837769)
(0.0026574524 1.3800443 -0.067800673)
(0.014805794 1.3643712 -0.051501047)
(0.0096693314 1.3388104 -0.026565284)
(0.0031968996 1.3341044 -0.0045959297)
(-0.0032087502 1.3656324 -0.0043028546)
(-0.0079575057 1.3843 -0.015342413)
(-0.0069325254 1.400048 -0.023153816)
(-0.00011398537 1.4008505 -0.026429156)
(0.0060801699 1.3945799 -0.020701159)
(0.0014626674 1.3704416 -0.012396222)
(0.0011565154 1.3654151 -0.002405975)
(-0.00057079261 1.3746034 -0.00018628415)
(-0.00068500084 1.3870288 0.0027365843)
(-0.0027018582 1.385849 0.0075916695)
(-0.0028200976 1.3800664 0.0075970435)
(-0.0013770281 1.3894144 0.0039616672)
(-0.0039041648 1.3785419 -0.0011260109)
(-0.00037391856 1.3745915 -0.0006210366)
(0.00094399865 1.3682952 0.002377509)
(0.003405958 1.3697082 0.0137583)
(-0.00055453084 1.3482023 0.02544511)
(-0.0048070805 1.3369185 0.026612393)
(-0.0064839079 1.3610422 0.019160474)
(-0.0056821585 1.3709546 0.0053794565)
(-0.0011579484 1.3686046 0.00056749875)
(0.0015305648 1.3545604 0.0035327157)
(0.0049543602 1.3408001 0.019439241)
(0.00025472509 1.303045 0.032398325)
(-0.0063841804 1.2890275 0.035431053)
(-0.0091915327 1.3221663 0.025439821)
(-0.0054382443 1.3544097 0.0080373337)
(-0.0013306303 1.3551308 0.0012420627)
(0.0015584475 1.3388512 0.0038125589)
(0.004939487 1.3074553 0.020997439)
(0.00017715689 1.2599234 0.034046692)
(-0.0072933055 1.2452468 0.037539186)
(-0.010558878 1.2821867 0.026373145)
(-0.0047602507 1.3328709 0.0087633568)
(-0.0012382166 1.3396638 0.0014896795)
(0.0013334096 1.3237757 0.0036146517)
(0.0041609926 1.2745545 0.020547167)
(-0.00028818215 1.2227093 0.033295321)
(-0.0079026043 1.2083332 0.035918782)
(-0.011238602 1.2458156 0.025471119)
(-0.0045959533 1.3088123 0.0088641501)
(-0.0011079284 1.3250433 0.0014380147)
(0.0010315269 1.309838 0.0033823736)
(0.0032487636 1.2445941 0.019788671)
(-0.00094103996 1.1920652 0.031090961)
(-0.0082929906 1.1783731 0.032837135)
(-0.011523949 1.2147426 0.023895465)
(-0.0049855765 1.284296 0.0087847977)
(-0.00103424 1.3119684 0.0012715521)
(0.00073129202 1.2963244 0.00334076)
(0.0024655553 1.2185507 0.019214609)
(-0.0016438026 1.1673326 0.028546831)
(-0.0084881058 1.1544822 0.029605047)
(-0.011556365 1.1889866 0.021981276)
(-0.005665408 1.2608971 0.0087095139)
(-0.0010836739 1.2998553 0.0012021518)
(0.00053670561 1.282433 0.0035997741)
(0.0017737203 1.1962867 0.018642294)
(-0.0022865233 1.1473143 0.026301275)
(-0.00857499 1.1353769 0.026823522)
(-0.011513012 1.1676955 0.020287758)
(-0.0063954013 1.2395274 0.0086848258)
(-0.001319847 1.2874533 0.0012676821)
(0.00049670789 1.2676521 0.0042270193)
(0.0012567548 1.1765822 0.018537717)
(-0.0028291583 1.1305128 0.024922287)
(-0.0086260369 1.1199406 0.024937075)
(-0.011605019 1.1491281 0.019358732)
(-0.0071274368 1.2201577 0.0088633614)
(-0.0017752736 1.2735341 0.0014378829)
(-8.3539258e-05 1.0000066 -8.4139935e-05)
(-0.00015896903 1.0000281 -0.00020673145)
(-0.00016765538 1.0000315 -0.00033431243)
(-9.8882323e-05 1.0000304 -0.00042143718)
(1.3076691e-05 1.0000249 -0.00044686119)
(0.00011826347 1.0000186 -0.00040419784)
(0.00016860043 1.0000143 -0.00030348016)
(0.00013806566 1.0000114 -0.00017143078)
(0.00010625015 0.99998124 -7.1142496e-05)
(-0.00065269159 1.0009595 -0.00063348167)
(-0.0019111482 1.0010268 -0.0025374317)
(-0.0018869396 1.0006603 -0.0039077179)
(-0.0010171799 1.0003609 -0.0048169327)
(0.00031105441 1.0002859 -0.0050122184)
(0.0014830866 1.0004932 -0.0044448517)
(0.0019746668 1.0008665 -0.0032690053)
(0.0015632043 1.0012085 -0.0018271952)
(0.00032502843 1.0009741 -0.00032424267)
(-0.0014603498 1.0039235 -0.0014304221)
(-0.0040283145 1.0034523 -0.0053720059)
(-0.0040157677 1.0021319 -0.0083090842)
(-0.0021763022 1.0010614 -0.010313117)
(0.00067890816 1.0008 -0.010740448)
(0.0031803093 1.0015278 -0.0094867048)
(0.0041926526 1.0028287 -0.0069337984)
(0.0033601243 1.0040138 -0.0039249103)
(0.00074029707 1.0040296 -0.00070798915)
(-0.0026279531 1.0096318 -0.0025880465)
(-0.0071968327 1.0080801 -0.0096327371)
(-0.0072550173 1.0050083 -0.015015248)
(-0.0039461429 1.0024918 -0.018760664)
(0.0012573334 1.0018794 -0.019562279)
(0.0057937443 1.0035848 -0.017212424)
(0.0075706008 1.0065892 -0.012483649)
(0.0060408334 1.0093471 -0.0070323019)
(0.0013244218 1.0098823 -0.0012603875)
(-0.0044016866 1.0194368 -0.0043481903)
(-0.01212904 1.0162219 -0.016251394)
(-0.012392407 1.0103605 -0.025648871)
(-0.0067906708 1.0054543 -0.032374041)
(0.0022075531 1.0042484 -0.033836523)
(0.0099972453 1.0075796 -0.029576959)
(0.01289446 1.0133445 -0.021191171)
(0.010188036 1.0185646 -0.011802619)
(0.0022242964 1.0198911 -0.002086731)
(-0.0070586412 1.0354889 -0.007002636)
(-0.019669726 1.030088 -0.026351909)
(-0.020478887 1.0202446 -0.042377501)
(-0.011376099 1.0117239 -0.054299474)
(0.0037612286 1.0095886 -0.056956668)
(0.016724678 1.01542 -0.049280551)
(0.021169444 1.0252562 -0.034666269)
(0.016447943 1.0338943 -0.018961948)
(0.0035789494 1.0361769 -0.0033061984)
(-0.01079215 1.0607358 -0.010727814)
(-0.030569349 1.0531924 -0.040924154)
(-0.032661536 1.038545 -0.067549835)
(-0.018523791 1.0252425 -0.088450208)
(0.0062089586 1.0218138 -0.093278539)
(0.027077041 1.031045 -0.079514279)
(0.033401921 1.0460423 -0.054506908)
(0.025330629 1.0585651 -0.029098371)
(0.0054585391 1.061614 -0.0050163863)
(-0.015469351 1.0982454 -0.015386377)
(-0.044687137 1.0902658 -0.059819635)
(-0.049447963 1.0719377 -0.10229349)
(-0.028822924 1.0539617 -0.13798594)
(0.0097539112 1.0491001 -0.14660615)
(0.041733277 1.0619112 -0.12247185)
(0.049766478 1.0814077 -0.081045634)
(0.036563012 1.0965172 -0.041874539)
(0.0078283005 1.0992916 -0.0071398891)
(-0.020213256 1.149994 -0.020108129)
(-0.059535454 1.1460383 -0.079828183)
(-0.06826106 1.1299173 -0.14200686)
(-0.041993756 1.1161354 -0.19945326)
(0.014621732 1.1128159 -0.21498897)
(0.059126468 1.121511 -0.17347109)
(0.067694608 1.1382422 -0.11039415)
(0.047990482 1.1508948 -0.05480964)
(0.01019265 1.1508794 -0.0092511947)
(-0.023096441 1.2137734 -0.022981841)
(-0.06813153 1.2209333 -0.091712553)
(-0.084186935 1.2291517 -0.17321773)
(-0.056068316 1.2316965 -0.2583572)
(0.01776749 1.2267242 -0.27909989)
(0.076398956 1.2332696 -0.22093784)
(0.07955417 1.2225412 -0.12928929)
(0.054450275 1.2202132 -0.062072908)
(0.011503136 1.2138925 -0.010478206)
(-0.021702802 1.2804142 -0.021587314)
(-0.062626967 1.3067496 -0.084155206)
(-0.081196807 1.3387681 -0.16277863)
(-0.050548586 1.3079488 -0.2195725)
(0.0092563439 1.2925063 -0.23408584)
(0.064684367 1.3275287 -0.19863859)
(0.076750258 1.3275755 -0.12339537)
(0.049297364 1.2934572 -0.056020787)
(0.010622535 1.2792478 -0.0097272075)
(-0.0155389 1.3350235 -0.01543624)
(-0.043388378 1.3771525 -0.057268198)
(-0.047858269 1.3701793 -0.089139676)
(-0.027722494 1.2903993 -0.092200931)
(-0.0052885016 1.2664299 -0.093953499)
(0.024649747 1.3286669 -0.098998983)
(0.047843104 1.3899074 -0.079135042)
(0.032706847 1.3531748 -0.036848816)
(0.0072353721 1.3329664 -0.0068897831)
(-0.0074008274 1.3663846 -0.0072801853)
(-0.018054744 1.39941 -0.020563802)
(-0.0090404163 1.3237092 -0.0043269707)
(-0.0058627287 1.2116797 0.026622421)
(-0.016662479 1.1824578 0.031170994)
(-0.014798121 1.2611744 0.0056440067)
(0.0087676286 1.3769844 -0.02163005)
(0.013406224 1.3853403 -0.014935417)
(0.002839315 1.3645629 -0.0032651496)
(-0.00071146544 1.3748399 -0.00051441154)
(0.0033084077 1.3753979 0.010255963)
(0.015253819 1.2500055 0.051239797)
(0.0050311064 1.126936 0.088252133)
(-0.021756351 1.0969758 0.093699931)
(-0.035988916 1.1794255 0.06453692)
(-0.020571513 1.3204953 0.021619426)
(-0.001837298 1.3876814 0.0019917602)
(-0.00065651883 1.3738832 -0.00032704117)
(0.0033075553 1.3679238 0.0036399232)
(0.015492373 1.3273589 0.028565696)
(0.024225852 1.18215 0.0736476)
(0.0079765118 1.0636383 0.10632472)
(-0.022794638 1.0359603 0.11027121)
(-0.042718561 1.1130316 0.084635914)
(-0.035355524 1.2568325 0.043759703)
(-0.011801811 1.3672066 0.012363105)
(-0.0024972521 1.3679417 0.0014204211)
(0.0049869187 1.3536193 0.005503407)
(0.020681835 1.2761056 0.037093451)
(0.024689494 1.1299973 0.07673087)
(0.0070608438 1.0223539 0.10229298)
(-0.021920634 0.99783756 0.10453624)
(-0.042148606 1.0666007 0.083883165)
(-0.039503035 1.2015985 0.049573891)
(-0.017214522 1.3335183 0.017132975)
(-0.0030019767 1.3544059 0.0021840524)
(0.0051169017 1.3369633 0.0058573677)
(0.021060353 1.2308212 0.038830075)
(0.021579754 1.0924626 0.071031309)
(0.0047637319 0.99682365 0.090165331)
(-0.020377256 0.97548794 0.091097953)
(-0.038644647 1.0357749 0.074660236)
(-0.038433454 1.1581584 0.047080629)
(-0.019230625 1.2957342 0.01795871)
(-0.0028574773 1.3387795 0.0022681397)
(0.0045679516 1.319613 0.0056550375)
(0.019043338 1.193622 0.037059135)
(0.017548101 1.0659351 0.062584705)
(0.0023627721 0.98140366 0.076764116)
(-0.01877744 0.96284209 0.07671354)
(-0.034442111 1.0155706 0.063503467)
(-0.035416493 1.1253201 0.041621538)
(-0.019565416 1.2598038 0.017008588)
(-0.0025172276 1.3238757 0.0019925195)
(0.0040153846 1.3015905 0.0055812518)
(0.016317563 1.1639921 0.034025625)
(0.013729395 1.0471879 0.054235216)
(0.00034066567 0.97219732 0.06472398)
(-0.017327449 0.95590741 0.063978662)
(-0.030527839 1.0023191 0.053204143)
(-0.032048452 1.1007971 0.035758586)
(-0.019381275 1.2283165 0.015722298)
(-0.0022985055 1.3102622 0.0016485037)
(0.0037193022 1.2828186 0.005889081)
(0.0137658 1.1406202 0.030992196)
(0.010534648 1.033667 0.047070765)
(-0.0012235131 0.96663767 0.054813536)
(-0.01607312 0.95221164 0.05359453)
(-0.027227601 0.99341054 0.044644267)
(-0.028988305 1.0822669 0.030527624)
(-0.018806996 1.2017656 0.014222238)
(-0.0023733259 1.2970853 0.0014472805)
(0.0036550989 1.2640404 0.0064858958)
(0.011696591 1.1216376 0.02850707)
(0.0080429687 1.0232251 0.041384016)
(-0.0023824405 0.96311764 0.047029455)
(-0.015010841 0.95033986 0.04547536)
(-0.024571984 0.98695566 0.037936948)
(-0.026502427 1.0675068 0.026358455)
(-0.018209029 1.179506 0.012867743)
(-0.0027531825 1.2833454 0.0013873818)
(0.0038667908 1.2459874 0.0073592106)
(0.010358514 1.1048113 0.026997812)
(0.0062377882 1.0145772 0.037200933)
(-0.003213041 0.96099168 0.041137958)
(-0.014156864 0.94974132 0.039319765)
(-0.022553652 0.98207766 0.032930831)
(-0.024779227 1.0546724 0.023440959)
(-0.018122639 1.1598263 0.012159639)
(-0.0035150064 1.2684441 0.0015611272)
(0.00064686887 1.0000906 -0.00014686156)
(-0.00020922863 1.0000281 -0.00015783377)
(-0.00029881554 1.0000348 -0.00029780136)
(-0.00028021442 1.0000354 -0.0004260526)
(-0.00015866788 1.0000293 -0.00051468037)
(2.2852845e-05 1.0000193 -0.00054084867)
(0.00019473415 1.0000105 -0.00049685793)
(0.00029121492 1.0000058 -0.00039473574)
(0.00028033266 1.000006 -0.00025993273)
(0.00016161423 1.0000077 -0.00012256361)
(-0.0012171872 1.0006734 0.0011397366)
(-0.00031282849 1.0014739 -0.00022846375)
(-0.0025549688 1.0010243 -0.0019027664)
(-0.0034322726 1.0004481 -0.0034243419)
(-0.003088397 0.99978006 -0.0047996176)
(-0.0015985293 0.99926886 -0.0057098302)
(0.00050610194 0.99914949 -0.0059072661)
(0.0024027157 0.99948665 -0.0053355521)
(0.0033689196 1.000119 -0.0041568644)
(0.0030965985 1.0007808 -0.0026654642)
(0.0017577362 1.0012469 -0.0012084242)
(5.6938717e-05 1.0022741 6.23679e-05)
(-0.00080950341 1.0044685 -0.00055306563)
(-0.0054012776 1.0034442 -0.0040124216)
(-0.0073092959 1.0013812 -0.0072932006)
(-0.0066567539 0.9989593 -0.01033916)
(-0.0034724325 0.99709584 -0.012398438)
(0.0011114035 0.99666204 -0.012848637)
(0.0052195791 0.9978883 -0.011550233)
(0.0072361891 1.0001675 -0.0089118194)
(0.006571133 1.0025215 -0.0056605959)
(0.003780015 1.0041352 -0.0026044263)
(0.00021726737 1.0049913 -8.056539e-05)
(-0.0015166856 1.0102317 -0.0010316458)
(-0.0096707019 1.0080697 -0.0071769013)
(-0.013233249 1.0032841 -0.013212492)
(-0.012237478 0.99752641 -0.019005647)
(-0.0064480961 0.99299054 -0.023049628)
(0.0020976428 0.99192379 -0.023946226)
(0.0096933753 0.99492609 -0.021372754)
(0.013233106 1.0003933 -0.016264966)
(0.011860731 1.005894 -0.010213903)
(0.0067818045 1.0096239 -0.004680656)
(0.00037626982 1.0107291 -0.00023778327)
(-0.0025655481 1.0201369 -0.0017749627)
(-0.016294877 1.0162174 -0.012097841)
(-0.022718382 1.0070708 -0.022686622)
(-0.021483162 0.99565554 -0.033351031)
(-0.01149109 0.98636749 -0.041107395)
(0.003802073 0.98414658 -0.04285875)
(0.017236775 0.99035742 -0.037856294)
(0.023028452 1.0013637 -0.028236721)
(0.020212982 1.012052 -0.017383716)
(0.01140942 1.0190879 -0.0078788394)
(0.00061786571 1.020799 -0.00044238286)
(-0.0041339409 1.0363506 -0.0028806627)
(-0.026398104 1.0301069 -0.019611304)
(-0.037854603 1.0146507 -0.037791562)
(-0.036967048 0.99429153 -0.057354518)
(-0.020250467 0.97680764 -0.072491068)
(0.006813864 0.97249684 -0.076019557)
(0.030170515 0.98441181 -0.066026895)
(0.039070333 1.0045911 -0.047792011)
(0.033237317 1.0231245 -0.028539072)
(0.018373314 1.0347314 -0.012681829)
(0.00095085302 1.0372621 -0.00074689427)
(-0.0063246946 1.0617448 -0.0044492148)
(-0.040986858 1.0531885 -0.030484748)
(-0.061089362 1.0300061 -0.061003301)
(-0.062519387 0.99684601 -0.097025284)
(-0.035544568 0.96616836 -0.12727632)
(0.012151132 0.95815603 -0.13463818)
(0.052262383 0.97976242 -0.1140955)
(0.064652265 1.0139277 -0.078952342)
(0.052584556 1.0429138 -0.045101403)
(0.028235756 1.0597238 -0.019477288)
(0.0014063616 1.063077 -0.0011975014)
(-0.0090817244 1.0994206 -0.0064541194)
(-0.059910141 1.0902458 -0.044597891)
(-0.094094572 1.0606398 -0.094030041)
(-0.10229488 1.0122283 -0.15927462)
(-0.062604942 0.96655778 -0.22273846)
(0.022158196 0.95433548 -0.24048603)
(0.088705857 0.98648974 -0.19337579)
(0.10290968 1.0379206 -0.12565523)
(0.078777709 1.077517 -0.067501719)
(0.040655775 1.0978856 -0.028041834)
(0.0019750784 1.1012673 -0.0017653625)
(-0.01193264 1.1510565 -0.0084514966)
(-0.079958849 1.1460231 -0.059456008)
(-0.13356767 1.1191226 -0.13357863)
(-0.16852063 1.0787814 -0.25927373)
(-0.10721969 0.99590299 -0.37604397)
(0.034184664 0.96580249 -0.40342526)
(0.15026339 1.0392062 -0.3273212)
(0.15607468 1.1011517 -0.18987048)
(0.10824667 1.1347396 -0.092545313)
(0.053227424 1.1520177 -0.036701877)
(0.0024627962 1.1534787 -0.00239631)
(-0.013752202 1.2143715 -0.0096224716)
(-0.091880289 1.2208836 -0.068124867)
(-0.17096797 1.2317319 -0.17061076)
(-0.20067168 1.1442989 -0.30368043)
(-0.12012853 0.9721847 -0.39754668)
(0.025703611 0.92250144 -0.42495662)
(0.15656208 1.0524323 -0.36304986)
(0.19863611 1.2111017 -0.24447049)
(0.12873574 1.2234611 -0.10995995)
(0.060271454 1.2202999 -0.041557203)
(0.002661241 1.2170796 -0.0028575197)
(-0.013047236 1.2802047 -0.0089325289)
(-0.084306566 1.3067276 -0.062726259)
(-0.15288363 1.3247825 -0.14819651)
(-0.1434975 1.1371591 -0.20297208)
(-0.089069691 0.92637528 -0.24551849)
(-0.0014182788 0.87112187 -0.2668836)
(0.088665362 1.0192949 -0.24217407)
(0.14473152 1.2474643 -0.18948578)
(0.1231525 1.3336269 -0.10646769)
(0.054431614 1.2918452 -0.037693241)
(0.0022530295 1.2827653 -0.0029223579)
(-0.0094144568 1.3341757 -0.0062906942)
(-0.057760338 1.377234 -0.042905518)
(-0.072799481 1.3179861 -0.061930409)
(-0.040299323 1.0665523 -0.030995379)
(-0.026625033 0.84289542 0.005339528)
(-0.031999348 0.78938997 0.0036242073)
(-0.015463295 0.93958253 -0.0329595)
(0.036153126 1.198379 -0.066625562)
(0.072012914 1.3853762 -0.065481288)
(0.035722328 1.3496071 -0.025174038)
(0.0012667725 1.3363629 -0.0025273443)
(-0.0045131166 1.3656309 -0.0029514479)
(-0.02214475 1.3994662 -0.015841999)
(0.0052452701 1.244911 0.020624029)
(0.037080691 0.96043216 0.094605454)
(0.017328361 0.7308762 0.1642228)
(-0.047810925 0.67563835 0.17333807)
(-0.082138897 0.82878125 0.11112775)
(-0.050179158 1.1031015 0.034145898)
(0.0095014103 1.3555422 -0.014848194)
(0.014231259 1.3810472 -0.010471762)
(7.7211387e-05 1.3676489 -0.0019552477)
(-0.0004276409 1.3746046 -0.00029209948)
(0.0071379477 1.3753125 0.0077893224)
(0.047882955 1.1612474 0.065574327)
(0.065816864 0.88173721 0.13986729)
(0.028748144 0.6752078 0.19779486)
(-0.046528336 0.6277954 0.20347354)
(-0.098356352 0.76164089 0.15261061)
(-0.088898283 1.0176317 0.080438039)
(-0.035765658 1.2892005 0.021293252)
(-0.0020827408 1.3855374 0.00058041929)
(-0.00085417286 1.3767323 -0.0014448852)
(0.0021025047 1.36832 0.0012482468)
(0.023918383 1.3271606 0.022092063)
(0.061574689 1.0951633 0.080114386)
(0.066584443 0.84345226 0.13957166)
(0.02606025 0.67029994 0.17894355)
(-0.040704386 0.63189243 0.1805319)
(-0.091350509 0.7415293 0.14442622)
(-0.095551359 0.96276955 0.089408249)
(-0.056029085 1.2221525 0.036714519)
(-0.012194493 1.3699742 0.0068439914)
(-0.0012900502 1.3705723 -0.0010484704)
(0.0032328438 1.3545807 0.0018565257)
(0.031175451 1.2758687 0.028956043)
(0.059943566 1.0498269 0.078551239)
(0.057156636 0.83135851 0.12276691)
(0.019895052 0.68850122 0.14830396)
(-0.034744356 0.65750957 0.14734168)
(-0.078186832 0.74654279 0.12167259)
(-0.088030033 0.93301097 0.081590108)
(-0.060450487 1.167511 0.039408244)
(-0.017577565 1.3421574 0.0095313865)
(-0.0013488249 1.3569361 -0.00071115073)
(0.0034687019 1.3388666 0.0019382933)
(0.031924353 1.2305874 0.030596975)
(0.052345979 1.0205906 0.07064537)
(0.045853175 0.83254681 0.10295339)
(0.013902158 0.71377698 0.11948859)
(-0.029692942 0.68837721 0.11715264)
(-0.065222191 0.76162162 0.098176045)
(-0.076343673 0.91885755 0.068739215)
(-0.057319966 1.1264753 0.036189653)
(-0.019366067 1.3090878 0.0099885805)
(-0.0011756451 1.3413777 -0.0004791866)
(0.0032109959 1.3237731 0.0018241159)
(0.029427543 1.1934032 0.029520838)
(0.043544856 1.0020513 0.061362699)
(0.035712715 0.83940429 0.085067264)
(0.0090341742 0.73911817 0.095857129)
(-0.025633151 0.71787403 0.092823263)
(-0.05426397 0.77927135 0.078166072)
(-0.064799849 0.91330825 0.056009308)
(-0.051490581 1.0964134 0.030991024)
(-0.019350487 1.2759492 0.0093237303)
(-0.00095855155 1.3267336 -0.00031268057)
(0.0028688669 1.3098083 0.0017470792)
(0.025876685 1.1637967 0.027479817)
(0.035544544 0.99021928 0.052810818)
(0.027514056 0.84806939 0.07040282)
(0.0053527161 0.76194533 0.077453526)
(-0.022415491 0.74382674 0.074086676)
(-0.045519438 0.79626197 0.062331823)
(-0.05489053 0.91217258 0.045174617)
(-0.04538352 1.0744426 0.025772119)
(-0.018808378 1.2455597 0.0082674731)
(-0.00078966285 1.3137651 -0.00020703445)
(0.002641624 1.2962575 0.0018269777)
(0.022478533 1.1404519 0.025412478)
(0.028990045 0.9823977 0.045694241)
(0.021188807 0.8566715 0.058873539)
(0.0026612207 0.78167267 0.063395621)
(-0.019860185 0.76599218 0.059892818)
(-0.038690867 0.81141992 0.050182917)
(-0.046904759 0.91298954 0.036562147)
(-0.040024733 1.0581657 0.021289387)
(-0.018414977 1.2191335 0.0073361431)
(-0.00073842799 1.301952 -0.00017831285)
(0.0026240265 1.2823255 0.0021838248)
(0.019726679 1.1214936 0.023701846)
(0.023897067 0.97672074 0.040065471)
(0.016399509 0.86472747 0.049931094)
(0.00071484212 0.79874102 0.052658827)
(-0.01781423 0.78499788 0.049118373)
(-0.033373912 0.8248131 0.040929178)
(-0.040631532 0.91458476 0.029920127)
(-0.035744523 1.0453362 0.017761586)
(-0.017981566 1.1965244 0.0064668523)
(-0.00088038597 1.2899692 -0.00027000754)
(0.002877162 1.267505 0.0028482425)
(0.017962796 1.1047114 0.022708565)
(0.020111576 0.97243805 0.035815715)
(0.012771116 0.87225712 0.043031194)
(-0.00074463162 0.81354855 0.044362783)
(-0.016206033 0.80133398 0.040804564)
(-0.029245168 0.83668002 0.03381773)
(-0.035809394 0.91668347 0.024890929)
(-0.032664121 1.0343788 0.015246043)
(-0.018010219 1.1764864 0.0059674497)
(-0.0012390695 1.2761824 -0.00050330837)
(-0.00012111506 1.0000194 -5.9706762e-05)
(-0.00033717435 1.0000311 -0.00016590026)
(-0.00042730413 1.0000353 -0.00027954133)
(-0.00038567973 1.0000303 -0.00038511319)
(-0.00021506585 1.0000189 -0.00045902744)
(3.1932587e-05 1.0000047 -0.00048114918)
(0.00026664689 0.99999365 -0.00044457093)
(0.00040579798 0.99999019 -0.00036007811)
(0.0004098471 0.9999937 -0.00024983571)
(0.00029012489 1.0000005 -0.00013653782)
(-6.4018613e-05 1.0000023 -6.1647067e-05)
(-0.0019772548 1.0012125 -0.00078176378)
(-0.003927172 1.000655 -0.0018760988)
(-0.0048088675 0.99978361 -0.0030820507)
(-0.0041876662 0.99880915 -0.004182425)
(-0.0021367454 0.99807385 -0.0049181604)
(0.00068754198 0.99790419 -0.0050793338)
(0.0032488822 0.99838492 -0.0046159616)
(0.0046403259 0.99929078 -0.0036678653)
(0.0044981371 1.000262 -0.0024842797)
(0.0030083611 1.0009947 -0.0013093943)
(0.00086954826 1.001224 -0.0004278494)
(-0.0042615269 1.0040617 -0.0016899032)
(-0.0083388981 1.0021158 -0.003994308)
(-0.010355822 0.99895879 -0.0066397037)
(-0.0091483229 0.99536949 -0.0091329085)
(-0.00470723 0.99263691 -0.010833915)
(0.001528324 0.99200531 -0.011208752)
(0.0071509306 0.99379391 -0.010132041)
(0.010089136 0.99713671 -0.0079601579)
(0.0096358029 1.000658 -0.0053168418)
(0.0063713736 1.0032874 -0.0027681638)
(0.0021226562 1.0041066 -0.00091334914)
(-0.0076441433 1.0094812 -0.0030398064)
(-0.01505173 1.0049943 -0.0072244031)
(-0.019026475 0.99752928 -0.012211312)
(-0.017167917 0.98873821 -0.017143819)
(-0.0089572514 0.98185455 -0.020638925)
(0.0029494648 0.98024751 -0.02141979)
(0.013576867 0.98478531 -0.019184594)
(0.018778709 0.99308947 -0.014795892)
(0.017556893 1.0015435 -0.0096842768)
(0.011460263 1.0076706 -0.0049602784)
(0.0039087005 1.0096993 -0.0016262777)
(-0.012837526 1.0188494 -0.0051190598)
(-0.02568814 1.0103682 -0.012343049)
(-0.033383637 0.99567319 -0.021439005)
(-0.03104254 0.97753889 -0.031001153)
(-0.016535061 0.96266146 -0.038131783)
(0.0055350553 0.9591002 -0.039768115)
(0.024927393 0.96908302 -0.035115704)
(0.033522622 0.98661339 -0.026372917)
(0.030394189 1.0036281 -0.016753384)
(0.019404548 1.0154164 -0.0083849195)
(0.006589655 1.0192685 -0.0027275447)
(-0.020667509 1.0343831 -0.0082619978)
(-0.042420591 1.0202811 -0.020400992)
(-0.057413503 0.99431936 -0.036892829)
(-0.055974388 0.95957632 -0.055901595)
(-0.030913402 0.92903378 -0.071355435)
(0.010536876 0.92147986 -0.075028185)
(0.046038034 0.9423817 -0.064684345)
(0.059105665 0.97735326 -0.046433778)
(0.051208294 1.00858 -0.028210169)
(0.031596196 1.0287144 -0.013649503)
(0.010597675 1.034927 -0.0044279315)
(-0.031812434 1.0592188 -0.012772587)
(-0.067619399 1.038576 -0.032534499)
(-0.097114572 0.99684929 -0.062412972)
(-0.10123386 0.93423521 -0.10114147)
(-0.05865586 0.87396646 -0.13536085)
(0.020449786 0.85889034 -0.144241)
(0.085587826 0.90049764 -0.12016372)
(0.10368009 0.96726728 -0.081379202)
(0.083960348 1.0203219 -0.04622692)
(0.049346686 1.0511044 -0.021311713)
(0.016272919 1.0597307 -0.0068402968)
(-0.045934383 1.0972857 -0.018578206)
(-0.10242367 1.0719237 -0.049268191)
(-0.15940064 1.0121367 -0.10221004)
(-0.19330956 0.9145479 -0.19332075)
(-0.12452719 0.78540355 -0.28598577)
(0.042697801 0.7459136 -0.30781871)
(0.17602594 0.84852975 -0.24626519)
(0.18093407 0.96710213 -0.14201728)
(0.13216225 1.0471478 -0.072604817)
(0.07265896 1.087655 -0.031352842)
(0.023398949 1.0970036 -0.0099188729)
(-0.060314629 1.1515739 -0.024543838)
(-0.14226583 1.129816 -0.068115874)
(-0.25974885 1.0785673 -0.16820288)
(-0.30772657 0.87198571 -0.30213328)
(-0.1817784 0.59108068 -0.40319927)
(0.052628932 0.51534511 -0.43199667)
(0.25310536 0.72068849 -0.36572667)
(0.30484069 1.0011312 -0.24160802)
(0.1947087 1.1091568 -0.10725969)
(0.097702749 1.1438125 -0.042050134)
(0.030587649 1.1490397 -0.013109443)
(-0.068257711 1.2204454 -0.02791694)
(-0.17364781 1.2290712 -0.084156505)
(-0.3091779 1.1437294 -0.19262637)
(-0.32040973 0.77155658 -0.2988143)
(-0.20720731 0.36088652 -0.42232382)
(0.039506702 0.24722386 -0.47244722)
(0.24893861 0.55082704 -0.3852868)
(0.31560125 0.97921536 -0.25903642)
(0.25057898 1.2247375 -0.14043657)
(0.11223064 1.2216305 -0.048262684)
(0.034728007 1.213865 -0.015011532)
(-0.060984321 1.2932836 -0.025518716)
(-0.16437335 1.3387397 -0.078605667)
(-0.21717837 1.1364057 -0.1219519)
(-0.21041226 0.69737188 -0.16666639)
(-0.17786385 0.38314325 -0.28197475)
(-0.027170969 0.2057832 -0.36313615)
(0.13331612 0.4505307 -0.25770007)
(0.18964155 0.93049888 -0.17340099)
(0.202123 1.283949 -0.11675014)
(0.10454673 1.3144593 -0.045465465)
(0.031866866 1.2818887 -0.013881445)
(-0.039793852 1.3527812 -0.017478123)
(-0.093144467 1.3698552 -0.039645987)
(-0.051896764 1.0658149 -0.0078435018)
(0.011322107 0.61427573 0.066937482)
(-0.015559419 0.33213671 0.091764481)
(-0.072373263 0.1777515 0.10280679)
(-0.075283824 0.41873985 0.022566051)
(-0.015674959 0.84610398 -0.022116316)
(0.070775236 1.249919 -0.048558341)
(0.070613054 1.3847004 -0.032163156)