/*--------------------------------*- C++ -*----------------------------------*\
  =========                 |
  \\      /  F ield         | OpenFOAM: The Open Source CFD Toolbox
   \\    /   O peration     | Website:  https://openfoam.org
    \\  /    A nd           | Version:  8
     \\/     M anipulation  |
\*---------------------------------------------------------------------------*/
FoamFile
{
    version     2.0;
    format      ascii;
    class       volScalarField;
    location    "50";
    object      k;
}
// * * * * * * * * * * * * * * * * * * * * * * * * * * * * * * * * * * * * * //

dimensions      [0 2 -2 0 0 0 0];

internalField   nonuniform List<scalar> 
72028
(
0.019677498
0.019687273
0.01701154
0.017007184
0.01489929
0.014894175
0.013255885
0.013250786
0.011955044
0.011949421
0.010924369
0.010920902
0.010125646
0.010127018
0.009541756
0.0095543183
0.009146297
0.0091744536
0.0088653601
0.0089109856
0.0085931787
0.0086456714
0.008274903
0.0083325112
0.0079476767
0.0080460882
0.0076989636
0.0080163693
0.0076870153
0.0084091068
0.0080989679
0.009495959
0.009335821
0.011612595
0.012023702
0.015053055
0.016614372
0.019904511
0.02289985
0.025927636
0.030099639
0.032610669
0.037365028
0.039369131
0.019679891
0.019657935
0.019652904
0.019652017
0.019653405
0.019662203
0.019687826
0.017002534
0.016708392
0.016698545
0.016694532
0.016700915
0.016991799
0.017003247
0.01489199
0.01466824
0.014664046
0.014660266
0.014662857
0.014884495
0.014892175
0.013248569
0.013068049
0.013064409
0.013059718
0.013062198
0.013240682
0.013250383
0.011948258
0.011799773
0.011795612
0.011789405
0.011794229
0.011940027
0.011951226
0.010919297
0.010799872
0.010796897
0.010789253
0.010796415
0.010911442
0.010922907
0.010123555
0.010043319
0.01005136
0.010041911
0.01004686
0.0101185
0.010127479
0.009543772
0.0095334165
0.0095790941
0.0095895274
0.0095545226
0.0095508222
0.0095448074
0.0091538305
0.0092373915
0.0093184456
0.0094064962
0.0092782792
0.009194622
0.0091452422
0.0088784831
0.0093473898
0.013013214
0.016435709
0.010662293
0.0089702196
0.0088586442
0.0086042018
0.012639889
0.038654017
0.051235662
0.023738855
0.0089161034
0.008581918
0.0082705964
0.023856847
0.073888732
0.093675544
0.049022913
0.0096666034
0.0082591252
0.0080013802
0.038710088
0.10059779
0.12231266
0.072254646
0.012514255
0.0079185958
0.0079360002
0.05316899
0.11739464
0.13729003
0.089200583
0.018341233
0.0076717865
0.0082519832
0.065419858
0.12742527
0.14471066
0.10114151
0.026695899
0.0076317819
0.0092088181
0.07552796
0.13323013
0.14779773
0.10952931
0.035897823
0.0079741694
0.011146345
0.08379542
0.13543358
0.14780514
0.11481526
0.044905683
0.0090285713
0.014354029
0.08977099
0.13492237
0.14548513
0.11718746
0.052925223
0.01124255
0.018817768
0.093333677
0.13246656
0.14149944
0.1172785
0.059429294
0.014973909
0.024272065
0.094904545
0.12874763
0.13648331
0.1157349
0.06427574
0.020284514
0.030312856
0.095068469
0.1243762
0.130984
0.11321517
0.067688869
0.026785715
0.036496583
0.094910407
0.12022103
0.12560062
0.11083645
0.070268274
0.033780934
0.019673045
0.019651801
0.019650812
0.019650777
0.019650797
0.019650771
0.019650772
0.019653344
0.019680819
0.016996398
0.016691571
0.016681407
0.016677383
0.016676644
0.016677881
0.016683758
0.016703153
0.016998475
0.014886506
0.014658765
0.014650336
0.01464501
0.014643351
0.014645513
0.014651639
0.014663547
0.014887927
0.013242523
0.013058542
0.013049369
0.013043534
0.013041187
0.013044108
0.013050714
0.013063468
0.01324448
0.011941125
0.01178839
0.011777462
0.011771441
0.011768527
0.011772503
0.011779934
0.011797531
0.011944275
0.010912948
0.010788767
0.010784009
0.01079254
0.010793852
0.010785322
0.010783809
0.010802157
0.010915764
0.01012172
0.010041856
0.010077039
0.010157487
0.010194129
0.010115794
0.010057643
0.010054878
0.010120655
0.0095543848
0.0095830375
0.0096823474
0.011015265
0.011949888
0.0099757379
0.0096223544
0.0095623482
0.0095412991
0.0091835959
0.0094436127
0.026443829
0.1070741
0.13957822
0.064062964
0.011566549
0.0093042626
0.0091500987
0.008931815
0.015829298
0.14214295
0.33132474
0.37999618
0.24992456
0.057260571
0.009557252
0.0088741947
0.0086825371
0.051560247
0.26730356
0.44876806
0.49107277
0.3762248
0.15326137
0.01408323
0.0086019923
0.0084219746
0.10085931
0.31346096
0.4586342
0.4911924
0.40217961
0.21415867
0.029250014
0.0082759407
0.0084464073
0.13298834
0.31563838
0.43267487
0.45863419
0.38763574
0.23359122
0.049096229
0.0079335862
0.0092113207
0.14804373
0.30380088
0.40091231
0.42227941
0.36372614
0.23500143
0.066957204
0.0077412548
0.011244769
0.154438
0.28740239
0.36771287
0.38502817
0.33722192
0.22960344
0.080598755
0.0078246512
0.015065921
0.15646207
0.26896489
0.33447733
0.34830114
0.30987257
0.2208398
0.091109332
0.0084681972
0.02075301
0.15547955
0.24981032
0.3028879
0.31390538
0.28315597
0.21003963
0.098766405
0.010127438
0.027547849
0.15224623
0.23101056
0.2741093
0.28295312
0.25822326
0.19819738
0.10349288
0.013189543
0.034437274
0.14744443
0.21333574
0.24861693
0.25579847
0.23570209
0.18615282
0.10566437
0.017691754
0.040641939
0.14176937
0.1972584
0.22644028
0.23233745
0.21582403
0.17455379
0.10590502
0.023294724
0.045879872
0.1359607
0.18310395
0.2073586
0.21221278
0.19860155
0.16399115
0.10490876
0.029511247
0.050298886
0.13099348
0.17101247
0.19114686
0.19514628
0.18393155
0.15499174
0.10387727
0.03594324
0.019679926
0.019651754
0.019650706
0.019650709
0.019650752
0.019650758
0.019650739
0.019650714
0.019650629
0.019653937
0.019676187
0.017003023
0.016690605
0.016675837
0.016670098
0.016668989
0.016668942
0.01666935
0.016671769
0.016680395
0.016705958
0.017007632
0.014893735
0.014657512
0.014642675
0.01463292
0.014628642
0.014627598
0.014629914
0.014636574
0.014648014
0.014664281
0.014898364
0.013251728
0.013057158
0.013040653
0.013028064
0.013020384
0.013018559
0.013022704
0.013034025
0.013046817
0.013063267
0.013255479
0.011953382
0.011786833
0.011768355
0.0117551
0.011742689
0.011741125
0.011748786
0.011762507
0.011775761
0.011795997
0.011955075
0.010924436
0.010787392
0.010780908
0.010811215
0.010706305
0.010687516
0.010802393
0.010789425
0.010782414
0.01079927
0.010924075
0.010127259
0.010042929
0.010104635
0.01039882
0.013879989
0.01649167
0.011531915
0.010127648
0.010069886
0.010048001
0.010123516
0.0095462507
0.0095843525
0.010252822
0.06520311
0.25091661
0.30879971
0.1601308
0.019245941
0.00966407
0.0095432309
0.0095323335
0.0091561287
0.0094434219
0.066369329
0.42354523
0.75302267
0.83236626
0.61519549
0.22900655
0.014267578
0.0092728115
0.0091218279
0.0088805236
0.015833969
0.26889821
0.69909408
1.0123271
1.0860139
0.88381582
0.49476798
0.087939949
0.0092836649
0.0088238368
0.0086057333
0.051665078
0.39392763
0.74767133
0.9830103
1.0377472
0.88817857
0.58696128
0.20462712
0.011740185
0.0085428447
0.0082716039
0.10105268
0.41641159
0.68221715
0.85025018
0.88759232
0.78295787
0.56465973
0.2610048
0.021118371
0.0082235136
0.0080018047
0.13307698
0.39916007
0.61209685
0.74816279
0.77945441
0.69332166
0.5181388
0.27307939
0.035209882
0.007895443
0.0079373008
0.14804383
0.37350889
0.54791568
0.65405721
0.67717358
0.612108
0.47182983
0.26843061
0.049920595
0.0076282704
0.0082540703
0.15436724
0.34539165
0.48497189
0.56351214
0.57969863
0.53339474
0.42548713
0.25786773
0.062817113
0.0074954858
0.009210412
0.15632252
0.31649687
0.42645793
0.48416263
0.49558585
0.46263946
0.38072232
0.24454494
0.073486912
0.007664721
0.011140539
0.15529193
0.28844691
0.37503187
0.4181804
0.4265017
0.40243944
0.33974706
0.22978785
0.082271689
0.0083896304
0.014326255
0.15203319
0.26243823
0.3312771
0.36438892
0.3706766
0.35250922
0.30366624
0.21461976
0.088720029
0.010164265
0.018748573
0.14722043
0.23909822
0.2946226
0.32070585
0.32561564
0.3114631
0.2726197
0.19986173
0.092657088
0.013566938
0.024143572
0.14154476
0.21864551
0.264104
0.28507966
0.28900759
0.27771967
0.24627338
0.18610075
0.094520298
0.019003238
0.030113737
0.13574411
0.20103698
0.23860437
0.25575503
0.25896596
0.24977938
0.22399496
0.17381654
0.094919316
0.025915354
0.036223824
0.13077815
0.18607839
0.21747629
0.23186736
0.23458042
0.22686675
0.20531295
0.16332241
0.094951502
0.033349515
0.019657929
0.019650741
0.019650666
0.019650661
0.019650629
0.019650619
0.019650625
0.019650652
0.019650692
0.019650866
0.019669552
0.016707423
0.016678723
0.016668368
0.016664446
0.016662883
0.016662612
0.016663209
0.01666577
0.016671814
0.016685427
0.01699526
0.014666164
0.014646308
0.014630215
0.014619784
0.014613985
0.014612565
0.014615756
0.014624061
0.014637012
0.014650233
0.014886487
0.01306482
0.0130443
0.013024669
0.013008193
0.01299953
0.012997081
0.013002628
0.013015177
0.013034638
0.013048267
0.013243175
0.01179594
0.01177192
0.011751583
0.011736762
0.011757371
0.011760694
0.011756226
0.011737439
0.011762615
0.011777041
0.011945015
0.01079594
0.010779083
0.010808346
0.010740601
0.011166606
0.011503305
0.010851009
0.010743375
0.010783875
0.01077803
0.010921288
0.010040508
0.010074078
0.010397247
0.032062439
0.14445688
0.19056157
0.081348374
0.013888685
0.010055209
0.010040612
0.010136627
0.0095317055
0.0096806359
0.065167441
0.48068839
0.89736882
0.99758087
0.72014928
0.24537559
0.012920629
0.009598369
0.0095843882
0.009236077
0.026435147
0.42373675
1.0523723
1.5352522
1.6487365
1.332326
0.74694286
0.15715229
0.0096717197
0.0092429293
0.0093447819
0.14229659
0.6995601
1.2867489
1.7495177
1.8637975
1.5491106
1.0049185
0.40697705
0.024275211
0.0090249727
0.012628076
0.26749467
0.74779382
1.1863145
1.4893579
1.6345306
1.3929556
0.97718415
0.51430109
0.075639512
0.0088828398
0.02383921
0.31342688
0.68180169
0.99370047
1.2107689
1.3284169
1.152064
0.84604048
0.50947537
0.13073743
0.009268993
0.038633836
0.31532938
0.611411
0.86682174
1.0911267
1.1540308
0.98789937
0.74519579
0.47376315
0.15975248
0.010993688
0.052998451
0.30326777
0.54717388
0.73972606
0.87326564
0.90452751
0.81689742
0.65237476
0.43521948
0.17116387
0.014388636
0.065126482
0.28673461
0.4842859
0.62181523
0.70009748
0.71630453
0.6693102
0.56281916
0.39596029
0.17454742
0.019230125
0.075107993
0.26824134
0.42586008
0.52429722
0.57279833
0.58200452
0.55479941
0.48401791
0.35735268
0.17394319
0.02535974
0.083261071
0.24908557
0.37451898
0.44682334
0.47908233
0.48485472
0.46765386
0.4182934
0.3213178
0.1705557
0.032263164
0.089156294
0.23031631
0.33083699
0.38568606
0.40864103
0.41260261
0.40078972
0.36460812
0.28902581
0.16514258
0.039283841
0.092676925
0.2126881
0.29424304
0.33714758
0.35440744
0.35732989
0.34865282
0.32096972
0.26083065
0.1584375
0.045723792
0.094239425
0.19666406
0.263776
0.29815178
0.31169251
0.31397301
0.3072521
0.28536892
0.2366217
0.15114357
0.051177201
0.094417303
0.18256291
0.23831787
0.26643089
0.2774477
0.27931167
0.27386692
0.25606451
0.21601148
0.14396665
0.05563366
0.094286598
0.17051849
0.21722063
0.24093136
0.25040757
0.252045
0.24732255
0.23219307
0.1986307
0.13787445
0.059313778
0.01967741
0.019652883
0.019650685
0.019650617
0.019650564
0.019650496
0.019650463
0.019650492
0.019650565
0.019650627
0.019650748
0.019657149
0.017010901
0.016696655
0.01667409
0.016665198
0.016661273
0.016659719
0.016659208
0.01665966
0.016662357
0.016667891
0.016680412
0.016987853
0.014898986
0.014660768
0.014640159
0.014623038
0.014611242
0.014604818
0.014603152
0.014606483
0.014615956
0.014630044
0.01464774
0.014882131
0.013256062
0.013059714
0.01303763
0.013013502
0.012995927
0.012977936
0.012974191
0.012987598
0.013003257
0.01302525
0.013046383
0.013238732
0.01195646
0.011789768
0.011765313
0.011735468
0.011753676
0.011748397
0.011617989
0.01175766
0.011733224
0.011752309
0.011774608
0.011939139
0.010926884
0.010790702
0.010787058
0.01069771
0.011164211
0.015857872
0.019142449
0.012776973
0.010748011
0.010800402
0.010779457
0.010915436
0.010128169
0.010046848
0.010153707
0.013856923
0.1442595
0.43814532
0.52214198
0.30033303
0.046304846
0.010357172
0.010065496
0.010136289
0.0095441332
0.0095773939
0.01100344
0.25048512
0.89723155
1.4338956
1.5600824
1.207686
0.56704107
0.058212754
0.0096471528
0.0096020682
0.0091501724
0.0093170807
0.10670422
0.75313793
1.5361156
2.1419374
2.2787626
1.8858658
1.1549865
0.39039809
0.01559094
0.0092915172
0.0088683505
0.012969513
0.33073701
1.0127752
1.7511699
2.3609652
2.4743459
2.1022025
1.3823531
0.66626525
0.089558986
0.0091773228
0.0085948617
0.038357089
0.44787309
0.98200454
1.4887102
2.1638944
2.3397025
2.0109701
1.2564465
0.72195274
0.19898651
0.010495232
0.0082752735
0.073269766
0.45720806
0.84794528
1.2080007
1.7751326
2.2511206
1.7166027
1.0449308
0.66285876
0.25321005
0.01654863
0.0079465123
0.099644083
0.43090285
0.74575171
1.0889122
1.4990479
1.6032889
1.301589
0.90774042
0.59596393
0.26514143
0.027335764
0.0076964305
0.11617302
0.39902257
0.65197384
0.87183524
1.0470838
1.0882161
0.9706459
0.76719337
0.53463276
0.26105379
0.040023069
0.0076727579
0.1260232
0.36588033
0.56182124
0.6991112
0.78031882
0.79721513
0.74784597
0.63937754
0.47462262
0.25147758
0.051637634
0.0080591013
0.13176114
0.33280234
0.48280397
0.57207766
0.61429319
0.62205637
0.59875173
0.53594127
0.41861295
0.2391343
0.061712386
0.0092332601
0.13397962
0.3014017
0.41707694
0.47852946
0.50320317
0.50726341
0.49480272
0.45499688
0.36910365
0.2252205
0.069946949
0.011788229
0.13353426
0.27280627
0.3634786
0.40820124
0.42428191
0.42671312
0.41916331
0.3917514
0.32675223
0.21076632
0.076194026
0.016173158
0.13117333
0.24747863
0.3199437
0.35404863
0.36552059
0.36717259
0.36204623
0.34185436
0.29109701
0.19658133
0.080489867
0.022222334
0.12756187
0.22544541
0.28443398
0.31139402
0.32018623
0.32143165
0.31760428
0.30192552
0.2612724
0.1832197
0.083056173
0.029210094
0.12329745
0.20648574
0.25520083
0.27719395
0.28434964
0.28537535
0.28227463
0.26954224
0.23626184
0.17108028
0.08427185
0.036313813
0.11923841
0.19037196
0.23137882
0.25018314
0.25656721
0.25753381
0.25468701
0.24361591
0.21548307
0.16053216
0.084658012
0.0196873
0.019652017
0.019650674
0.019650581
0.019650474
0.019650414
0.019650374
0.019650417
0.01965051
0.019650573
0.019650734
0.019654677
0.017006906
0.016693736
0.01667368
0.016664839
0.016660599
0.016659641
0.016658984
0.016659136
0.016661771
0.016666938
0.016678359
0.016708667
0.014894765
0.014659062
0.014639322
0.014621783
0.014609445
0.014603561
0.014601693
0.014604488
0.014614358
0.014628343
0.014644833
0.014662598
0.013252484
0.013057729
0.013036488
0.013011629
0.012993111
0.012974284
0.012971895
0.012984078
0.013001817
0.013023019
0.013043203
0.013060404
0.011952636
0.01178614
0.011763551
0.011733945
0.011756295
0.01161925
0.011550464
0.011744593
0.011735661
0.011749785
0.011771734
0.011791297
0.010923191
0.010785073
0.01078965
0.010681592
0.011495395
0.019119899
0.024622538
0.014111908
0.010817637
0.010800373
0.010780591
0.010790863
0.010129478
0.010038731
0.010191918
0.016407154
0.18992313
0.52177139
0.61251839
0.36900792
0.06453006
0.010478615
0.010070633
0.010031945
0.0095528697
0.0095878115
0.011901184
0.30715836
0.99669456
1.5600866
1.6919729
1.3230241
0.64872837
0.079061475
0.0096176544
0.0095136562
0.0091733745
0.0094016943
0.13777853
0.82994599
1.648211
2.2798747
2.418582
2.0159912
1.2517567
0.45123577
0.021242533
0.009218696
0.0089100929
0.016120128
0.37691767
1.083413
1.8628961
2.4768797
2.5582084
2.2355094
1.4741451
0.72657916
0.11577235
0.0091018366
0.0086435865
0.050003907
0.48755383
1.0342487
1.632223
2.3443025
2.3541958
2.2454071
1.3279341
0.76800954
0.23258513
0.010696496
0.0083312272
0.091422386
0.48750328
0.88302729
1.3215174
2.2535116
2.33585
2.1985415
1.1826077
0.69533968
0.28251339
0.016635432
0.0080353062
0.11969416
0.45503352
0.77571225
1.151296
1.6036146
1.6930421
1.3956039
0.94808344
0.6219024
0.28928
0.026232154
0.0079873286
0.13456065
0.41894034
0.67421723
0.90248715
1.087425
1.1290808
1.0074687
0.79240344
0.55532809
0.28129575
0.036963727
0.0083361752
0.14200894
0.38205209
0.57731826
0.71471235
0.79644889
0.81337118
0.76378207
0.65457175
0.49042915
0.26834173
0.047377066
0.0093347236
0.14519539
0.34571352
0.49364788
0.58074885
0.62143858
0.62886268
0.60650457
0.54549909
0.43052688
0.25302531
0.056770879
0.011298286
0.14537028
0.31168375
0.42490759
0.48384734
0.50677088
0.5104514
0.49906185
0.46140489
0.37817167
0.23662141
0.065153004
0.014512869
0.14325727
0.2810529
0.36935063
0.41177918
0.42631392
0.42841347
0.42180105
0.39632896
0.33378854
0.22013714
0.07197445
0.01908513
0.13949232
0.25417042
0.32450046
0.35664543
0.36684296
0.36822353
0.363864
0.34529969
0.29667384
0.20432732
0.076886244
0.024822399
0.13469068
0.23093669
0.28806047
0.3133961
0.32115512
0.32218127
0.31897238
0.30462495
0.26576667
0.18966887
0.080016151
0.031255652
0.12938876
0.21100041
0.25815279
0.27881818
0.28513967
0.28598777
0.2833845
0.27173127
0.23992472
0.1764364
0.081682635
0.037828697
0.1241737
0.19408263
0.23386469
0.25160744
0.25732384
0.25814668
0.25569649
0.24548782
0.21852364
0.16486427
0.081901469
0.019653452
0.019650635
0.019650565
0.019650505
0.019650384
0.019650349
0.019650393
0.019650485
0.019650576
0.019650747
0.019658659
0.016701432
0.016676303
0.016667243
0.016663658
0.016661624
0.01666086
0.016661114
0.016663659
0.016669225
0.016682637
0.016989974
0.014663847
0.014643777
0.01462735
0.014616414
0.014609867
0.014607689
0.014610957
0.014619765
0.014632783
0.014647006
0.01488121
0.013062983
0.013042272
0.013019883
0.013003172
0.012991465
0.012987913
0.012995297
0.01300919
0.013029379
0.013043845
0.013236274
0.011793606
0.011770545
0.011746114
0.011755853
0.011761031
0.011747337
0.011762401
0.011736964
0.011757443
0.011772061
0.011933185
0.01079408
0.010783801
0.010801237
0.010850618
0.012769678
0.014106717
0.011475169
0.010718961
0.010792414
0.01077653
0.01090576
0.010044871
0.010115204
0.011502727
0.08080579
0.29961821
0.3685022
0.19144287
0.025605577
0.010190925
0.010058405
0.010121651
0.009554032
0.0099655167
0.15828107
0.71821565
1.2068322
1.3223614
1.0007482
0.42513311
0.031559187
0.0096188347
0.0095773443
0.0092781966
0.06259084
0.61145947
1.3303174
1.8860091
2.0155534
1.651633
0.98359243
0.28681398
0.011286593
0.0092539663
0.010574387
0.24566184
0.87946084
1.5472967
2.1039871
2.2342064
1.8637969
1.2229499
0.55850441
0.055005989
0.009084152
0.022861579
0.37114935
0.88317021
1.3897153
2.0132215
2.2477478
1.8745673
1.1368905
0.63731625
0.14295134
0.0096161794
0.04705278
0.39718073
0.77805939
1.1466798
1.7160861
2.204987
1.6368862
0.95664927
0.60071648
0.20168076
0.012971435
0.069541031
0.38293523
0.68901065
0.98438308
1.3000198
1.3955544
1.1501008
0.83607522
0.54608852
0.22188595
0.020242966
0.086160258
0.35941647
0.60849767
0.8141089
0.96877446
1.0067661
0.90255375
0.71843262
0.49410346
0.224353
0.030679231
0.098000112
0.33338569
0.53038795
0.66706403
0.74628353
0.76307899
0.71500701
0.60794882
0.44284312
0.22014272
0.041654485
0.10640757
0.30653811
0.46013235
0.55297482
0.5975046
0.60591146
0.58111413
0.51512819
0.3940938
0.21268088
0.051787567
0.11186677
0.28029503
0.40034304
0.46615686
0.49379959
0.49857362
0.48421834
0.44050862
0.35010314
0.20314936
0.060545011
0.1144685
0.2557781
0.35074601
0.39954594
0.41834178
0.42139608
0.4121311
0.38113345
0.31181045
0.19241492
0.067562424
0.11481074
0.23360896
0.30996878
0.34760587
0.36136137
0.36352357
0.35696896
0.3337251
0.27913502
0.18127938
0.072715129
0.11351815
0.21402434
0.27644186
0.30636044
0.31702479
0.31868248
0.31369089
0.29549061
0.25154409
0.17038052
0.076140396
0.11123283
0.1970449
0.24867624
0.27310009
0.28177644
0.28313387
0.27908851
0.26429691
0.22827319
0.16027839
0.078175863
0.10905957
0.18257138
0.22589588
0.24664193
0.25424153
0.25547172
0.2518661
0.23914504
0.2088178
0.15158865
0.079386014
0.019662255
0.019650722
0.01965059
0.019650527
0.019650506
0.019650492
0.019650513
0.019650526
0.019650597
0.019651199
0.019676761
0.016993625
0.016684659
0.016672463
0.016668238
0.016667403
0.016667257
0.01666757
0.016668922
0.016674959
0.016694289
0.016996655
0.014887645
0.014652789
0.01463789
0.014628193
0.014623546
0.014622462
0.014625204
0.014631517
0.014642362
0.014656694
0.014886553
0.013244405
0.013051559
0.013035482
0.013020088
0.013011802
0.013010746
0.013014974
0.013026931
0.013041713
0.0130559
0.013242845
0.011942115
0.011780158
0.011763785
0.011742335
0.011741274
0.011743583
0.011742035
0.011753904
0.011770512
0.01178778
0.0119421
0.010910921
0.010784304
0.010791234
0.010750992
0.01075322
0.010823436
0.010721059
0.010805389
0.010782825
0.01079227
0.010916169
0.010117124
0.010060226
0.010128893
0.013840499
0.046027022
0.064199891
0.025522149
0.01066625
0.010103473
0.010050412
0.010126227
0.0095504415
0.0096315558
0.019004837
0.24364973
0.56549594
0.64693393
0.42399028
0.091288474
0.0099251598
0.0095782093
0.0095601115
0.009195731
0.011479329
0.22607831
0.7444535
1.1539182
1.2489917
0.98147329
0.48687999
0.056200855
0.0093553457
0.0091964972
0.0089705317
0.055584563
0.49063901
1.0023614
1.3815951
1.4708387
1.2202576
0.76032832
0.24042313
0.011591942
0.0089544956
0.0089011095
0.14926449
0.5825256
0.97375975
1.2536719
1.3247859
1.1347652
0.79355262
0.36768027
0.030297033
0.0087130402
0.0095639505
0.20960161
0.56025561
0.84204186
1.0409896
1.1798666
0.95530205
0.71461236
0.39542918
0.062567965
0.0084712413
0.012136228
0.2290758
0.51392123
0.74139387
0.90449047
0.94626912
0.8351727
0.63791252
0.38211271
0.090021419
0.0085121491
0.017460661
0.23068819
0.46795245
0.64904801
0.76444572
0.7908309
0.71772292
0.56859374
0.3592708
0.10805293
0.0093147506
0.025280079
0.22560865
0.42205174
0.559997
0.63712532
0.6532098
0.60733325
0.50087798
0.33367736
0.11927104
0.011461596
0.034046918
0.21723074
0.37774281
0.48164599
0.53410435
0.54434729
0.51459049
0.43854271
0.30703893
0.12621901
0.015283683
0.042760216
0.20684182
0.33718722
0.4162986
0.45348465
0.46043581
0.44004417
0.38430665
0.28087437
0.12956998
0.020808374
0.050645288
0.19539398
0.30147101
0.36291989
0.39048908
0.39550836
0.38073258
0.33853497
0.25637262
0.1300709
0.027277674
0.057154641
0.18370587
0.27073073
0.31952713
0.34078507
0.34459774
0.33337747
0.30042759
0.23420108
0.12848817
0.033855947
0.062090094
0.17241752
0.24463701
0.28412344
0.30100801
0.30401854
0.2951874
0.26883696
0.2146354
0.1255159
0.039967046
0.065617833
0.16212105
0.22256934
0.25498159
0.26874463
0.27120092
0.26402934
0.24252119
0.19772367
0.12187852
0.045438749
0.068302255
0.15334677
0.20405527
0.23123014
0.24290238
0.24501191
0.23890475
0.2207925
0.18333528
0.11881909
0.05031546
0.019687886
0.019653415
0.01965062
0.019650625
0.019650566
0.019650565
0.019650605
0.019650621
0.019650757
0.019656758
0.017005071
0.016705754
0.016683221
0.016676072
0.016673624
0.016673797
0.016675343
0.016677724
0.016684783
0.016988091
0.014894743
0.014666641
0.01465212
0.014643408
0.014638741
0.014638481
0.014641812
0.014646508
0.014651982
0.014884234
0.013253004
0.013065677
0.013051371
0.013042075
0.013035406
0.013034523
0.013039592
0.013046404
0.013052162
0.013241063
0.011954127
0.011797599
0.011780067
0.011770136
0.011762507
0.011760891
0.011766901
0.011774415
0.011782686
0.011936314
0.010925091
0.01080044
0.01078672
0.010790983
0.010807553
0.010810023
0.010799616
0.010785157
0.010784429
0.010902874
0.010128536
0.01005357
0.010075169
0.010059242
0.010362909
0.010480767
0.010193996
0.010105975
0.01004533
0.010106131
0.0095452971
0.0095641352
0.0096712103
0.012872562
0.057757765
0.078280264
0.03124361
0.0099261385
0.0096044288
0.0095424398
0.0091475737
0.0093087702
0.014068776
0.15560827
0.38867685
0.44833785
0.28440034
0.0557944
0.0096094821
0.0092023576
0.0088633968
0.0095329375
0.086112417
0.4046499
0.66431717
0.72310072
0.55507662
0.23896616
0.019331423
0.0090290653
0.0085863888
0.013776489
0.20161381
0.51170501
0.71954352
0.76472995
0.63412548
0.36603294
0.06597571
0.0093025304
0.0082609841
0.028145469
0.25775099
0.50665067
0.66011206
0.69248788
0.59815713
0.3939885
0.12218654
0.01137437
0.0079203324
0.047217222
0.26982146
0.47084139
0.59316876
0.61940448
0.54400956
0.38087532
0.15305431
0.016880165
0.0076606557
0.064613196
0.26524428
0.43234197
0.53196747
0.55312557
0.49236331
0.35820434
0.16554354
0.026519318
0.0075958639
0.078025061
0.25482137
0.3932569
0.47220596
0.48849426
0.44136673
0.33277223
0.16981963
0.038519083
0.0078732623
0.088385015
0.24170382
0.35489319
0.41648789
0.42884882
0.39284361
0.30628129
0.16980452
0.050143386
0.0087864374
0.096054584
0.22719318
0.31912222
0.36725905
0.37672783
0.34904654
0.28024421
0.16691327
0.060235217
0.010747408
0.10091791
0.21228381
0.28708252
0.32515248
0.33254485
0.31091287
0.25584789
0.16197768
0.068412293
0.014117925
0.10327802
0.19777351
0.25911219
0.28970209
0.29559516
0.27836519
0.23376031
0.15573229
0.074425201
0.018998585
0.10372548
0.18423604
0.23509719
0.26004746
0.26482374
0.25087761
0.21426183
0.14887025
0.078360652
0.02510483
0.10293086
0.17215178
0.21465643
0.23517798
0.23909369
0.22769051
0.19740269
0.14211567
0.080601994
0.031808917
0.10207761
0.16183037
0.19741372
0.2145091
0.21777961
0.20830143
0.18305493
0.13630543
0.081889479
0.019680841
0.019653992
0.019650929
0.019650771
0.019650772
0.019650815
0.019651268
0.019656722
0.019677577
0.017000155
0.016708623
0.016689418
0.016686512
0.016685922
0.016689453
0.016698661
0.016990288
0.017003165
0.014889428
0.014667869
0.014656228
0.01465636
0.014655764
0.014658414
0.014663755
0.014886774
0.014892824
0.013245655
0.013067326
0.013055404
0.01305624
0.013055468
0.013057572
0.013064461
0.013242829
0.013249195
0.011945254
0.011799676
0.011784621
0.011784693
0.011783305
0.011785282
0.011796237
0.011939049
0.011947679
0.010916104
0.010802328
0.010785349
0.010788831
0.010789915
0.010786456
0.010798672
0.010907386
0.010917184
0.010120323
0.010051829
0.010047033
0.010073269
0.010078395
0.01006446
0.010054982
0.010110471
0.010116135
0.0095407369
0.0095494684
0.0096043815
0.00965194
0.0096275628
0.0096271089
0.009581324
0.0095450783
0.0095234609
0.0091500669
0.0092790766
0.0096652837
0.015426461
0.020902102
0.011216923
0.0093550436
0.0092030534
0.0091093644
0.0088739183
0.0092792516
0.023971597
0.088611837
0.11391535
0.053869829
0.011519179
0.0090255641
0.0088086311
0.0086005147
0.011635413
0.074690891
0.1972974
0.22984785
0.14038862
0.02974075
0.0092863113
0.0085276499
0.0082722504
0.020667478
0.12929207
0.25130799
0.27976064
0.1988209
0.061385591
0.011312816
0.0082116535
0.0079268394
0.034351558
0.15804268
0.2631669
0.28670495
0.21923768
0.088562459
0.016715673
0.0078959278
0.0077250059
0.048719194
0.1693641
0.259038
0.27889696
0.22194156
0.10653253
0.026215621
0.0076460265
0.0077789664
0.06136587
0.17268752
0.24945604
0.26612805
0.21798411
0.11781033
0.038108977
0.0075963739
0.0083439131
0.071835639
0.17206506
0.23717866
0.25101202
0.21077962
0.12485684
0.049669104
0.0078677806
0.0098414873
0.080489285
0.16871379
0.22338836
0.23482122
0.20149709
0.12834805
0.059733969
0.0087208415
0.012654498
0.086906193
0.16338191
0.20908399
0.21854301
0.19098558
0.12899124
0.0679187
0.010529307
0.016859722
0.090888409
0.15678528
0.19505223
0.20291852
0.1800414
0.1275414
0.073966624
0.01367913
0.022165551
0.092835222
0.14961035
0.18183551
0.18842089
0.16930295
0.1246863
0.077946887
0.018429054
0.028113136
0.093335833
0.14255189
0.16982674
0.1753256
0.15933411
0.12115148
0.080235157
0.024603057
0.034316265
0.09346624
0.13656573
0.15939036
0.16386514
0.15075262
0.11817898
0.081559876
0.03160687
0.019676386
0.019669552
0.019657126
0.019654747
0.019658643
0.019676769
0.017008274
0.016998521
0.016993026
0.016713719
0.016996144
0.016999986
0.014898767
0.014890476
0.014889813
0.014670823
0.014892329
0.014891746
0.013255824
0.013247692
0.013246625
0.013069733
0.013249798
0.013249962
0.011955593
0.011949442
0.011946934
0.01180036
0.011948395
0.011951327
0.010924736
0.010925612
0.010922659
0.010798294
0.010918962
0.010924576
0.010124255
0.01014209
0.010143275
0.0100393
0.010130548
0.010132061
0.0095338016
0.0095893245
0.0096074924
0.009520831
0.0095832745
0.0095640674
0.0091250774
0.0092467148
0.0092955239
0.0092256242
0.0092589795
0.0091988465
0.0088262915
0.0090248412
0.0091791175
0.0091008482
0.0090866561
0.0089550872
0.0085435081
0.0088767447
0.01045584
0.01062494
0.0095778161
0.0087127377
0.0082233365
0.0092435574
0.016363134
0.01633856
0.012758503
0.0084640579
0.0078946282
0.010911615
0.026914726
0.025640652
0.019716275
0.0084810038
0.0076250556
0.014211032
0.039368506
0.036100933
0.029775517
0.0092205231
0.0074836003
0.018919499
0.050782419
0.046300344
0.04049524
0.011242026
0.007630165
0.024886773
0.060704761
0.055514744
0.050482827
0.014889084
0.0082976804
0.03161419
0.068839409
0.063778035
0.059185295
0.020218662
0.009948616
0.038473011
0.075036906
0.07057298
0.06621356
0.026546773
0.013136236
0.044790835
0.079322366
0.07552153
0.071419155
0.033047278
0.018259406
0.050161137
0.08190885
0.078722203
0.074917869
0.039124141
0.024870121
0.054555324
0.083156245
0.080468768
0.077029295
0.044579844
0.032059773
0.058179161
0.083567847
0.080758486
0.07830858
0.049448438
0.019676385
0.019676778
0.017631578
0.017620174
0.019669545
0.019658595
0.01761746
0.017607375
0.019687565
0.01763784
0.017633845
0.019657074
0.019654696
0.017605899
0.017937531
0.019677478
0.01763401
0.017637503
0.019654642
0.0196571
0.017937636
0.017604028
0.019658577
0.019669507
0.017607779
0.017615926
0.019676778
0.019676389
0.017618789
0.017630964
0.031631044
0.048857915
0.037047242
0.051639682
0.05799872
0.078189213
0.059768062
0.079562715
0.039264214
0.042521374
0.043920668
0.083647521
0.081019173
0.084135342
0.092144026
0.038075876
0.044027011
0.043224139
0.081241837
0.084322412
0.092237453
0.084768243
0.07902431
0.059222242
0.080344735
0.060967011
0.050168414
0.033327427
0.052956751
0.038813082
0.019677551
0.017626826
0.019687847
0.017629162
0.019680881
0.019656739
0.017623359
0.017604862
0.017628688
0.019656663
0.019680827
0.017603345
0.017621623
0.019677522
0.017627071
0.028765896
0.034265726
0.032048426
0.036864429
0.034074354
0.080488011
0.038463055
0.08237859
0.038686607
0.082219877
0.035948113
0.084000572
0.040454512
0.030719335
0.036371238
0.019680825
0.01762378
0.019687857
0.019656731
0.017629764
0.017604586
0.017623021
0.019656666
0.019687879
0.017603744
0.017629444