/*--------------------------------*- C++ -*----------------------------------*\
  =========                 |
  \\      /  F ield         | OpenFOAM: The Open Source CFD Toolbox
   \\    /   O peration     | Website:  https://openfoam.org
    \\  /    A nd           | Version:  8
     \\/     M anipulation  |
\*---------------------------------------------------------------------------*/
FoamFile
{
    version     2.0;
    format      ascii;
    class       volScalarField;
    location    "50";
    object      nut;
}
// * * * * * * * * * * * * * * * * * * * * * * * * * * * * * * * * * * * * * //

dimensions      [0 2 -1 0 0 0 0];

internalField   nonuniform List<scalar> 
72028
(
0.0019974652
0.0019974136
0.0019736177
0.0019734628
0.0019521863
0.0019520584
0.0019338259
0.0019336752
0.0019185597
0.0019183434
0.0019073394
0.0019073346
0.0019023279
0.0019028839
0.0019067756
0.0019086978
0.001922197
0.0019261301
0.0019433944
0.0019497515
0.0019594804
0.0019671946
0.0019643852
0.001974706
0.0019648318
0.0019863807
0.0019792078
0.0020555511
0.0020477259
0.0022312951
0.0022185097
0.0025710795
0.002592632
0.0031527813
0.0033002981
0.004027172
0.0044038341
0.0051845497
0.0058334413
0.006564595
0.0074819054
0.0080932081
0.0092340388
0.0097101012
0.0019973493
0.0019971598
0.0019971225
0.0019971137
0.0019971243
0.0019972032
0.0019974255
0.0019733374
0.0019705032
0.0019704399
0.0019703822
0.001970402
0.001972999
0.0019733405
0.0019518881
0.0019494221
0.0019494422
0.001949352
0.0019492536
0.0019513837
0.0019518709
0.0019334768
0.0019313362
0.0019313659
0.0019311893
0.0019310621
0.001932866
0.0019335229
0.0019182279
0.0019165688
0.0019166727
0.0019163703
0.0019163325
0.0019176222
0.0019183126
0.0019071719
0.0019066241
0.0019070659
0.0019066693
0.0019066752
0.0019067524
0.0019072664
0.0019024964
0.0019049653
0.0019071429
0.0019065144
0.0019060499
0.0019026416
0.0019025802
0.0019074452
0.0019172046
0.0019253786
0.001928846
0.0019200451
0.0019093604
0.0019071813
0.0019235679
0.0019439593
0.0019671709
0.0019839738
0.0019457727
0.0019300074
0.00192214
0.0019454279
0.002044126
0.0026919599
0.0033032839
0.0022804215
0.0019592415
0.0019426346
0.001961145
0.0027495691
0.0070757807
0.0087009695
0.0047322764
0.0020177525
0.0019580847
0.0019634431
0.0049625024
0.011773163
0.013774332
0.0087920128
0.0022555353
0.00196241
0.0019783732
0.0075737854
0.014854274
0.017196592
0.011810695
0.0029287353
0.0019600688
0.002040664
0.0096960129
0.017105398
0.019416589
0.01393145
0.0040842653
0.0019751962
0.0021882715
0.011360263
0.01886771
0.021031769
0.015712106
0.0055246635
0.0020388682
0.0024806408
0.01285643
0.020340674
0.022308374
0.017295515
0.0070228875
0.0021922086
0.0029837408
0.014351072
0.02155288
0.023340647
0.018692604
0.0085443335
0.0025089184
0.0037203223
0.015752031
0.022543397
0.024174335
0.0198828
0.010038952
0.0030862395
0.0046641003
0.01699314
0.023341075
0.024834876
0.020878311
0.011450373
0.0039732203
0.0058360708
0.018065336
0.023978193
0.025351761
0.021701418
0.012750775
0.0051714099
0.0072195149
0.019001859
0.024501067
0.025764285
0.022400286
0.013951963
0.0066322441
0.0087465257
0.019932745
0.02502758
0.026140267
0.023127701
0.015121187
0.0082649248
0.0019972934
0.0019971102
0.0019971122
0.0019971126
0.0019971133
0.0019971117
0.0019971045
0.0019971233
0.0019973561
0.001973185
0.0019703405
0.0019701892
0.0019701538
0.0019701468
0.0019700951
0.0019700818
0.0019702749
0.0019731812
0.0019516239
0.001949277
0.0019490915
0.0019490677
0.0019490292
0.0019489302
0.0019488729
0.0019490624
0.0019516861
0.0019331338
0.001931055
0.00193089
0.0019309612
0.001930902
0.0019307334
0.0019305833
0.0019309062
0.0019332314
0.0019177662
0.0019161891
0.0019163668
0.0019169002
0.0019168688
0.0019164885
0.0019158706
0.0019163082
0.0019179412
0.0019067742
0.0019065312
0.0019081744
0.0019117752
0.0019124347
0.0019096446
0.0019069514
0.0019068251
0.0019068803
0.001902586
0.0019063824
0.0019126843
0.0019262902
0.0019332839
0.0019171876
0.0019097237
0.0019062471
0.0019022277
0.0019090083
0.0019253963
0.0019549546
0.0021534337
0.002288432
0.0020024404
0.0019272182
0.0019209136
0.0019071763
0.0019276005
0.0019889436
0.0047970263
0.014038075
0.017204602
0.0096493556
0.0023467931
0.001952018
0.001923066
0.001952646
0.0031987513
0.01760568
0.034049858
0.038070203
0.027242127
0.008988262
0.0020771298
0.0019447987
0.0019730514
0.0084046981
0.029571549
0.045643084
0.049241118
0.039401835
0.018936667
0.0030063479
0.0019607607
0.0019919867
0.013939698
0.035383088
0.048952117
0.051885649
0.043855337
0.025581662
0.0057665209
0.0019648516
0.0020767105
0.017793497
0.037298442
0.048886135
0.051401273
0.044575627
0.028800988
0.0087881623
0.0019629826
0.0023248188
0.020287461
0.037735118
0.048063297
0.050311393
0.044223393
0.030245922
0.011079524
0.0019917466
0.0028207961
0.021960964
0.03774137
0.047050651
0.049060412
0.043596821
0.03100756
0.012901118
0.0020856488
0.0035828889
0.023208047
0.037580656
0.045949756
0.04774164
0.042854651
0.031493138
0.014617961
0.0022965804
0.0046136742
0.024196402
0.03730895
0.044827249
0.046429202
0.042055128
0.031799562
0.016222306
0.0027265022
0.0058335139
0.024992962
0.03695918
0.043735019
0.045174606
0.041242104
0.031964561
0.017638861
0.0034131458
0.0071580777
0.025625096
0.036567682
0.042708137
0.044009663
0.040452664
0.032023732
0.018846105
0.0043429825
0.0085021145
0.026127732
0.036178282
0.041774573
0.042956357
0.039723035
0.03202186
0.019859651
0.0055167374
0.009820215
0.026573855
0.035855961
0.040955748
0.042024884
0.039094045
0.032038043
0.02072925
0.0069076706
0.011124303
0.027118346
0.03566619
0.040287506
0.041249798
0.038609267
0.032182402
0.021623398
0.0084714828
0.0019973517
0.0019971075
0.0019971097
0.0019971117
0.0019971153
0.0019971159
0.0019971142
0.0019971109
0.001997102
0.0019971287
0.0019973892
0.0019733687
0.0019702701
0.0019699965
0.0019699505
0.0019700326
0.0019700609
0.001969997
0.0019699221
0.001969989
0.0019703423
0.0019735313
0.0019520104
0.0019491611
0.0019487561
0.0019487435
0.0019488852
0.0019489089
0.0019487903
0.0019486777
0.0019487302
0.0019491448
0.0019521765
0.0019337204
0.0019309
0.0019304737
0.0019307083
0.0019310966
0.0019312052
0.0019308372
0.0019305589
0.0019304044
0.0019309353
0.0019338149
0.0019186683
0.0019159876
0.0019161377
0.001917334
0.0019180021
0.0019185836
0.0019177983
0.0019168885
0.0019157393
0.0019161715
0.0019185366
0.0019076528
0.0019063116
0.0019088947
0.0019182926
0.0018981418
0.0018970795
0.001917707
0.0019126301
0.0019072526
0.0019064492
0.0019072453
0.0019028589
0.0019063969
0.0019183706
0.0019885099
0.0025940201
0.0030222456
0.0021906757
0.0019222887
0.0019121751
0.0019052861
0.0019019997
0.0019076842
0.0019254418
0.0020467205
0.0092311017
0.026188545
0.030742161
0.018537041
0.0035102356
0.0019322438
0.0019184237
0.0019055845
0.0019237893
0.0019887011
0.0094942957
0.040052893
0.063828752
0.069200736
0.054239423
0.02457931
0.0028038083
0.0019489499
0.001919161
0.0019456236
0.003198704
0.028454094
0.062594626
0.083735183
0.088327782
0.075552308
0.047207804
0.012074239
0.0020275953
0.0019381453
0.0019612841
0.0084142704
0.040795237
0.069272191
0.08504747
0.088415581
0.079208989
0.057137663
0.023591188
0.0025788118
0.0019528869
0.0019635223
0.013956677
0.045012316
0.067737556
0.079896376
0.082434863
0.075477423
0.058309567
0.03019154
0.0044608971
0.001957299
0.001978363
0.017793801
0.045555902
0.065211175
0.076275268
0.078702883
0.072162921
0.057015691
0.032887791
0.0069855079
0.0019568836
0.0020408435
0.020272703
0.045095431
0.062819985
0.072903601
0.075082953
0.069145894
0.055404308
0.033857536
0.0091842032
0.001966026
0.0021885565
0.021933118
0.044362024
0.060289907
0.069183863
0.071067259
0.065899337
0.053663698
0.034273944
0.01092042
0.0020040986
0.0024807853
0.023170263
0.043526685
0.057739351
0.065521022
0.067147122
0.062672274
0.051872092
0.034463455
0.012471595
0.0021159631
0.0029821719
0.024152587
0.042649206
0.055329375
0.062178419
0.063599682
0.059686184
0.050129238
0.034501724
0.014026053
0.0023673921
0.0037140976
0.024945652
0.041771535
0.053141892
0.059234012
0.060494375
0.05702534
0.048502181
0.034427263
0.015495437
0.00286447
0.0046494274
0.025575413
0.040931834
0.051203972
0.056681201
0.057812692
0.054700156
0.047027783
0.034277627
0.016798905
0.0037125436
0.005808571
0.026076495
0.040171199
0.049519174
0.054479627
0.055503067
0.052689383
0.045732366
0.034099109
0.017925063
0.0049636025
0.0071756759
0.02652199
0.039529775
0.048059682
0.052575755
0.053508093
0.050948315
0.044615622
0.033965889
0.018904994
0.0065150029
0.0086844076
0.027064214
0.039040204
0.046852084
0.051008502
0.051869369
0.049510839
0.043700632
0.033961441
0.019877802
0.0082519021
0.0019971595
0.0019971079
0.001997109
0.0019971107
0.00199711
0.0019971098
0.0019971095
0.0019971095
0.0019971091
0.0019971028
0.0019972645
0.0019704316
0.001969993
0.0019698239
0.0019698262
0.0019698616
0.0019698729
0.0019698272
0.0019698007
0.0019698417
0.0019700739
0.0019730312
0.0019492409
0.0019487377
0.0019485069
0.0019485506
0.0019486605
0.0019486703
0.0019485669
0.0019484828
0.0019485352
0.0019487761
0.0019514857
0.0019310122
0.0019303721
0.0019303627
0.0019309577
0.0019317038
0.001931842
0.0019313913
0.0019305505
0.0019303102
0.0019303655
0.00193303
0.0019161242
0.0019157138
0.0019169169
0.0019200297
0.0019276612
0.0019282515
0.0019261957
0.0019172346
0.001916309
0.0019153888
0.0019180086
0.001906092
0.0019074845
0.0019178695
0.0019120331
0.0020065238
0.002065526
0.0019560865
0.0019050644
0.0019111416
0.0019057989
0.0019076126
0.0019044756
0.0019121271
0.0019881915
0.0053857256
0.017108116
0.021229084
0.01105211
0.0025978016
0.0019066191
0.0019067842
0.0019043745
0.0019167814
0.0019544751
0.009225748
0.043299628
0.070971251
0.077237395
0.059648025
0.02570903
0.0024696566
0.0019287286
0.0019128198
0.0019435529
0.0047942676
0.040044982
0.083150803
0.11054303
0.11645625
0.099717831
0.063467699
0.018545044
0.0020284172
0.0019351824
0.0020434187
0.017609681
0.062576598
0.099578002
0.12172091
0.12665789
0.11309824
0.083403
0.040171288
0.0046253267
0.0019663724
0.0027464534
0.029560833
0.069217295
0.096063864
0.10923137
0.11474286
0.10568005
0.084886682
0.051195215
0.011349551
0.0020080117
0.0049565004
0.035340522
0.067645438
0.088322291
0.097831572
0.10237473
0.095844198
0.079847365
0.053510495
0.01736342
0.0021716982
0.0075556542
0.037229104
0.065104533
0.084669813
0.09793775
0.10135918
0.092521558
0.076263067
0.052851325
0.020994293
0.0026332277
0.0096634264
0.037642993
0.062711149
0.080489008
0.091371145
0.093835494
0.087160835
0.072920682
0.051644107
0.023152446
0.0034319617
0.011309798
0.037629039
0.060183884
0.075687216
0.084424281
0.086283636
0.081167708
0.06922508
0.050286546
0.02456253
0.0043940439
0.012786326
0.037454829
0.057637753
0.071091677
0.078335264
0.079837067
0.07569161
0.065575117
0.048866589
0.025606008
0.0054797831
0.014260662
0.037176264
0.055232608
0.067020375
0.073229552
0.074505168
0.070988135
0.062238505
0.047457523
0.026417647
0.0066665381
0.015643972
0.036824022
0.053049996
0.063515021
0.068978299
0.070098149
0.06701708
0.059297048
0.046115049
0.027046206
0.0079370976
0.016871365
0.036432758
0.051116833
0.060523726
0.065416808
0.066420006
0.063665699
0.056748004
0.044876847
0.027518873
0.0092446297
0.017933944
0.036045349
0.049436854
0.057965681
0.062401685
0.063313018
0.060816307
0.054552992
0.043774626
0.027872959
0.010546603
0.018863544
0.035725986
0.047981702
0.055771375
0.059837868
0.060675827
0.058384811
0.052658471
0.042825919
0.028181954
0.011832205
0.019790108
0.035539132
0.046777555
0.053984682
0.057783504
0.058570303
0.056424549
0.05110144
0.042056729
0.028606535
0.013109277
0.001997461
0.0019971212
0.0019971069
0.0019971071
0.0019971061
0.0019971032
0.0019971016
0.0019971027
0.0019971055
0.0019971064
0.0019971056
0.0019971667
0.001973572
0.001970301
0.0019699126
0.0019697573
0.0019697459
0.0019697874
0.0019697834
0.0019697216
0.0019697053
0.0019697501
0.001969911
0.0019728713
0.0019521404
0.0019491547
0.0019486385
0.0019483995
0.0019484294
0.0019485613
0.0019485772
0.0019484218
0.0019483486
0.0019484031
0.001948629
0.0019512119
0.0019337872
0.0019308931
0.0019303488
0.001930404
0.0019313546
0.0019310872
0.0019311302
0.001931479
0.0019308104
0.0019302591
0.0019302831
0.001932726
0.0019186018
0.0019160054
0.0019161578
0.001917155
0.0019272464
0.0019243827
0.0019047085
0.0019289876
0.0019207841
0.0019167483
0.0019155438
0.0019176447
0.0019074586
0.0019062505
0.0019109604
0.0018968467
0.0020062575
0.0027828127
0.0033094932
0.0022845798
0.0019131115
0.0019161021
0.001906912
0.0019073909
0.0019024184
0.001906402
0.0019255237
0.0025899825
0.017084508
0.039630604
0.045343849
0.029737323
0.0072117289
0.0019856328
0.0019109796
0.0019049879
0.0019068349
0.0019248946
0.0021511742
0.02613389
0.070913925
0.10245925
0.1093801
0.089732663
0.049354425
0.0086539925
0.0019418589
0.0019156853
0.0019224127
0.0019664602
0.013990269
0.063739194
0.11044864
0.1390445
0.1449682
0.12785006
0.089469221
0.037645004
0.0030235597
0.0019428218
0.0019435044
0.0026835569
0.033947852
0.083575919
0.12151923
0.14392622
0.14798646
0.13557978
0.10482251
0.06025318
0.012688673
0.0019937941
0.0019594303
0.0070271874
0.045475208
0.084747309
0.10889092
0.12978108
0.13551205
0.12634459
0.099722055
0.067452305
0.023574645
0.00233104
0.0019641663
0.011690586
0.048721468
0.079519855
0.097407134
0.11337175
0.12833547
0.11301101
0.091245742
0.066284972
0.02963065
0.0036034551
0.0019643655
0.014732182
0.048620696
0.075915699
0.09761599
0.11744214
0.12277941
0.10853414
0.087556195
0.063892638
0.032224668
0.0054651951
0.0019784503
0.016942166
0.047780476
0.072583223
0.091141323
0.10365081
0.10657602
0.098626579
0.08300961
0.061609781
0.033242397
0.0073886442
0.0020441021
0.018670374
0.046764861
0.068900562
0.084243534
0.093076046
0.094971225
0.089745612
0.077804397
0.059222579
0.033691527
0.0091473453
0.0022086638
0.020120703
0.045670596
0.06526849
0.078184487
0.085105659
0.08653758
0.082577859
0.072898978
0.056814393
0.033908847
0.010794393
0.0025679721
0.021319887
0.044559353
0.06195081
0.073099062
0.078906155
0.080094341
0.076815381
0.068599098
0.054526499
0.033980688
0.012320294
0.0032462695
0.022304693
0.04348004
0.059026841
0.06886275
0.073939273
0.074976775
0.072122882
0.064920741
0.052438488
0.033941388
0.013710007
0.0043091774
0.023102143
0.042466413
0.05649118
0.06531301
0.069859281
0.070790708
0.06823649
0.061791862
0.050577767
0.033820544
0.014955848
0.0056925314
0.023742696
0.041545861
0.054304378
0.062307493
0.066443844
0.067293967
0.064968398
0.059119133
0.048948191
0.03365312
0.016062599
0.0072969078
0.024270559
0.040739323
0.05241316
0.059751494
0.06356623
0.064353211
0.062205073
0.056828891
0.0475269
0.033490783
0.017054321
0.0090109392
0.024801376
0.040081516
0.050855655
0.057702859
0.061300576
0.062046843
0.060014928
0.054970726
0.046345999
0.033416941
0.017981246
0.0019974141
0.0019971137
0.0019971059
0.0019971052
0.001997101
0.0019970988
0.0019970968
0.0019970986
0.0019971025
0.0019971034
0.0019971049
0.0019971343
0.0019734382
0.0019703209
0.0019699293
0.0019697633
0.0019697291
0.0019698162
0.0019698031
0.0019697175
0.0019696939
0.0019697164
0.0019698426
0.0019703378
0.0019520836
0.001949236
0.0019486682
0.001948405
0.0019484096
0.0019486187
0.0019486234
0.0019483954
0.001948334
0.0019483585
0.0019484934
0.0019489849
0.0019337818
0.0019309731
0.0019304036
0.0019305066
0.0019314622
0.0019311527
0.0019314736
0.0019315309
0.0019310386
0.0019302485
0.0019301184
0.0019306641
0.0019185828
0.0019159848
0.0019162444
0.001917736
0.0019277639
0.0019049237
0.001894729
0.0019241436
0.0019223337
0.0019168633
0.0019154511
0.0019156741
0.0019074746
0.0019061106
0.0019117782
0.0018962098
0.0020641987
0.0033060019
0.0041527031
0.0025078363
0.0019381494
0.0019162801
0.0019074092
0.0019054859
0.0019030103
0.0019059551
0.0019327168
0.0030079378
0.021160855
0.04529869
0.051235572
0.034793394
0.0093351272
0.0020049445
0.0019115223
0.0019034391
0.0019083685
0.0019282868
0.0022803423
0.030577711
0.077071513
0.10927526
0.11627696
0.096316293
0.054914724
0.010867495
0.0019435147
0.0019147321
0.0019257962
0.0019828489
0.017017046
0.068888955
0.11612239
0.1447188
0.1505129
0.13364181
0.095061205
0.042251221
0.0039681191
0.0019438313
0.0019494085
0.0032457987
0.037738014
0.087859256
0.12597817
0.14735632
0.15021042
0.13994094
0.10928856
0.064585074
0.015386782
0.0019953865
0.0019666701
0.0085364895
0.048806481
0.08775554
0.11372972
0.13444781
0.13566423
0.13235576
0.1026317
0.070745493
0.026675742
0.0023881901
0.0019744403
0.013508217
0.051398025
0.081733166
0.10119445
0.1273342
0.1341903
0.12615274
0.096691603
0.068776105
0.032486102
0.0036548123
0.0019839704
0.016881458
0.050899332
0.078092527
0.10075566
0.12243293
0.12753085
0.11276889
0.089940648
0.06608245
0.034710538
0.0055690051
0.0020488027
0.019070269
0.049820498
0.074565085
0.093397268
0.10632949
0.10931292
0.10108675
0.08504284
0.063600331
0.03542403
0.0074248578
0.002213484
0.020667315
0.048594181
0.07061814
0.085931189
0.094780121
0.096671371
0.091416369
0.079467137
0.060992119
0.035633571
0.0089915774
0.0025326612
0.02193571
0.047305393
0.066751461
0.079539703
0.086380242
0.087789353
0.083865829
0.074288935
0.05837175
0.035655715
0.010378595
0.0030798127
0.022967864
0.046024107
0.063246998
0.07424712
0.079959808
0.081123643
0.077891412
0.069794938
0.055901678
0.035560113
0.011778903
0.0039069279
0.023807336
0.04479944
0.060176895
0.069869979
0.074858915
0.075874928
0.073064005
0.065974711
0.053663274
0.035372452
0.013143847
0.0050107087
0.024478013
0.043662042
0.057524512
0.066215513
0.070685753
0.071598972
0.069081262
0.06273624
0.05167873
0.03512055
0.014414091
0.0063383025
0.025007584
0.042633611
0.055239684
0.063127873
0.0671994
0.06803412
0.065739093
0.059974818
0.049943251
0.034837419
0.015567417
0.0078179078
0.025433307
0.04172428
0.053265666
0.060506563
0.064267082
0.065041041
0.062917881
0.057612207
0.048427804
0.034562539
0.016622864
0.0093904483
0.025821333
0.040967533
0.051643196
0.058412798
0.061966778
0.062702216
0.060689683
0.055701037
0.047166936
0.034359603
0.017504954
0.001997127
0.0019971037
0.0019971037
0.0019971024
0.0019970965
0.0019970947
0.0019970966
0.0019971005
0.001997103
0.0019971044
0.0019971784
0.0019704378
0.0019699793
0.0019698447
0.0019698617
0.0019698653
0.0019698422
0.0019697685
0.0019697418
0.0019697765
0.0019699366
0.0019729291
0.0019493297
0.0019487701
0.0019485664
0.0019486306
0.0019487172
0.0019486696
0.0019485435
0.001948446
0.0019484522
0.0019484576
0.0019511451
0.0019311282
0.001930526
0.0019305457
0.0019314587
0.0019318762
0.0019319161
0.0019316678
0.0019307814
0.0019302926
0.0019299233
0.0019325338
0.0019162647
0.0019162189
0.0019174667
0.0019261233
0.0019294143
0.0019244812
0.0019293482
0.0019194093
0.0019166446
0.0019150208
0.0019170934
0.001906396
0.0019093337
0.001917524
0.0019560476
0.0022834358
0.0025072644
0.002063369
0.0019056827
0.0019145982
0.0019060178
0.0019063683
0.0019057367
0.0019171551
0.0021847753
0.010989563
0.029662292
0.034744879
0.021297499
0.0044573916
0.0019405504
0.001909008
0.0019032881
0.0019197373
0.0020006462
0.018349875
0.059418563
0.089548773
0.096206107
0.07733792
0.03933915
0.0053751612
0.0019288653
0.0019128118
0.0019455838
0.0094757935
0.053844051
0.09930097
0.12748675
0.13342396
0.11634661
0.078880508
0.029452178
0.002288545
0.0019375802
0.0022643167
0.026819546
0.074980658
0.11239822
0.1348587
0.13948726
0.12608548
0.096085595
0.052101929
0.0088956779
0.0019774143
0.004579596
0.03883976
0.078476636
0.10459655
0.12501317
0.1316558
0.12122133
0.093592753
0.060975598
0.018262771
0.0021568049
0.0085153494
0.043246131
0.074718924
0.094807595
0.1117243
0.12555539
0.10998795
0.086363024
0.061190152
0.024526878
0.0029236569
0.011481169
0.04395297
0.071462306
0.091802812
0.10795342
0.11252344
0.10085355
0.082650883
0.059427718
0.027646744
0.004359166
0.01355491
0.043615145
0.068521665
0.086593608
0.09819959
0.10088853
0.093549637
0.078716787
0.057548931
0.02915926
0.0061067542
0.015296347
0.04302022
0.0653439
0.080694172
0.089404727
0.091252505
0.086088913
0.07421647
0.05558004
0.029993075
0.0078004453
0.016856851
0.042316414
0.062176051
0.075283426
0.082291617
0.083726547
0.079692752
0.069865296
0.0535788
0.030540411
0.0094150384
0.018249757
0.041556341
0.059240538
0.070629187
0.076567297
0.077770203
0.074392698
0.065976884
0.051650218
0.030911796
0.010956287
0.019445126
0.040780903
0.056622557
0.066696805
0.071903373
0.072956576
0.070008414
0.062607565
0.049864815
0.031141637
0.012392304
0.020452022
0.040026015
0.054333682
0.063376672
0.068039435
0.068984724
0.066347628
0.059720047
0.048256028
0.031259939
0.013699644
0.021290077
0.039327612
0.052353733
0.060553116
0.064789605
0.065651412
0.06325467
0.057244543
0.046841028
0.031303999
0.014877218
0.02200455
0.038726384
0.050638864
0.058143288
0.062041179
0.062837389
0.060629288
0.055116364
0.045611884
0.031339371
0.015945635
0.022746095
0.038265145
0.049222213
0.056199207
0.059861774
0.060614408
0.058533714
0.053379684
0.044595826
0.031482998
0.016963339
0.0019972062
0.0019971017
0.0019971038
0.0019971024
0.0019971024
0.0019971019
0.0019971025
0.0019971015
0.0019971026
0.0019971055
0.0019973256
0.0019731275
0.0019701491
0.0019699753
0.0019699828
0.0019700743
0.0019700947
0.0019700278
0.0019699035
0.00196989
0.0019701125
0.0019730909
0.0019516473
0.0019489767
0.0019487976
0.0019488485
0.0019490155
0.0019490458
0.0019489267
0.0019487245
0.0019486491
0.0019488019
0.0019515547
0.0019332243
0.0019306787
0.0019307156
0.0019310586
0.0019316932
0.0019319646
0.0019313886
0.0019308114
0.0019304529
0.0019305042
0.0019330637
0.0019178694
0.0019159108
0.0019170432
0.0019178151
0.0019217489
0.0019233023
0.0019200488
0.0019175894
0.0019161696
0.0019157158
0.001917752
0.0019067315
0.0019069942
0.0019128406
0.0019062253
0.0019139111
0.0019387223
0.001906029
0.0019169442
0.001908851
0.0019063077
0.0019070167
0.001902471
0.0019099634
0.0019224807
0.0025892598
0.0071749895
0.0092968773
0.0044447531
0.0020340478
0.0019175801
0.0019064646
0.0019030598
0.001909238
0.001928664
0.0034717031
0.025537153
0.049179616
0.05474598
0.039243881
0.012002054
0.0019877721
0.0019235937
0.0019097369
0.0019300586
0.0023314295
0.02429281
0.063138914
0.089179209
0.094756293
0.078704408
0.044828651
0.0085575454
0.0019584856
0.0019292473
0.0019591294
0.0087888463
0.046745743
0.082919971
0.10435975
0.10884529
0.095850351
0.066943024
0.026128586
0.0024462881
0.0019556651
0.0020148759
0.018516948
0.056569973
0.084243248
0.099042762
0.10212104
0.093364022
0.072521884
0.038523019
0.00577352
0.0019774619
0.0022341044
0.025055431
0.057695722
0.079164412
0.090558613
0.096173056
0.086167747
0.070211761
0.043105379
0.010380781
0.0020007025
0.0028536239
0.028246702
0.056397013
0.075632325
0.086991759
0.089577022
0.082484795
0.067412849
0.043910636
0.013576888
0.0020915647
0.0039322326
0.029686877
0.054806992
0.072356721
0.08253372
0.08473385
0.078572192
0.064844451
0.043634587
0.015856729
0.0023474656
0.0053051258
0.03045286
0.053102229
0.068720897
0.07739463
0.079197399
0.074087692
0.062109354
0.043063669
0.017729003
0.0028806018
0.0067463425
0.030954356
0.051350868
0.065121412
0.07253918
0.074050647
0.06975005
0.059356324
0.042373484
0.019313557
0.0036690767
0.0082190651
0.031285608
0.049647849
0.061827281
0.068278014
0.069582187
0.065873632
0.056769409
0.041623986
0.020628269
0.0046981031
0.0096791612
0.031478922
0.048057881
0.058921714
0.064630534
0.065782741
0.062514512
0.054434826
0.040857395
0.021712233
0.0058950931
0.011070356
0.031566746
0.046616743
0.056403073
0.06152689
0.062561358
0.059635515
0.052376794
0.040111783
0.022598608
0.0071980494
0.01235987
0.031592198
0.04535055
0.054234026
0.058875277
0.059814212
0.057167131
0.050592314
0.039427993
0.023321454
0.0085614397
0.013553367
0.031633822
0.04425967
0.052362101
0.056602729
0.057463417
0.055044743
0.049047221
0.038852762
0.023944986
0.009960977
0.014714475
0.031800678
0.043366157
0.050822607
0.054757758
0.055561146
0.05331259
0.047770066
0.038424547
0.024660515
0.011382032
0.0019974275
0.0019971278
0.0019971016
0.0019971055
0.0019971034
0.0019971036
0.0019971053
0.0019971043
0.0019971025
0.0019971624
0.0019734763
0.0019704678
0.0019701981
0.0019701554
0.0019701721
0.0019702204
0.0019702251
0.0019700933
0.0019700243
0.0019728424
0.0019521109
0.0019493436
0.0019490963
0.0019491031
0.0019491755
0.0019492581
0.0019492495
0.0019490162
0.00194882
0.0019512864
0.001933814
0.0019311728
0.001930884
0.0019310854
0.0019313198
0.0019314541
0.0019313568
0.0019309449
0.0019305779
0.0019328271
0.0019186595
0.0019164204
0.0019162685
0.001917215
0.0019179829
0.0019182302
0.001917813
0.0019166745
0.0019157868
0.0019172963
0.0019075465
0.0019067604
0.0019078379
0.001912116
0.001917031
0.0019177013
0.0019156834
0.0019092625
0.0019063362
0.0019060368
0.0019027176
0.0019061786
0.0019128689
0.0019071247
0.0019867039
0.0020055163
0.0019403794
0.0019180908
0.0019072138
0.001901629
0.0019072271
0.0019212119
0.0019334819
0.0024622753
0.0085991286
0.010785694
0.0053324694
0.0019882778
0.0019279555
0.0019089684
0.0019223844
0.0019528786
0.002768096
0.01838131
0.037452418
0.041989488
0.029243755
0.0085128644
0.0020150988
0.0019316302
0.0019431758
0.0020720774
0.011865963
0.039885801
0.05996157
0.064227509
0.051796826
0.025997314
0.0037756137
0.0019691643
0.0019586036
0.0029493777
0.023252174
0.050828226
0.067075076
0.070353607
0.060657335
0.038363587
0.0099056012
0.0020966485
0.0019625854
0.0055864013
0.029784501
0.053095063
0.065866492
0.068391478
0.060893406
0.042952761
0.016032664
0.0025974063
0.0019604215
0.0085376011
0.032450835
0.052418628
0.063471828
0.065717484
0.059152879
0.043762621
0.019958531
0.003773691
0.0019723773
0.010790906
0.033407243
0.051210297
0.06120254
0.063258512
0.057294304
0.043498072
0.02228211
0.0055584868
0.0020287866
0.012572979
0.033821195
0.04986091
0.058835951
0.060674515
0.055346847
0.042939275
0.023779457
0.0075016074
0.0021683421
0.014239824
0.034016611
0.048454854
0.0564513
0.058078484
0.053367247
0.04226073
0.024867347
0.0092785806
0.0024524792
0.015817839
0.034066629
0.047063449
0.054187009
0.055631605
0.051458856
0.041522711
0.025730369
0.010915103
0.0029758678
0.017225374
0.03400773
0.04574021
0.05212102
0.053414169
0.049691191
0.040766679
0.026418905
0.01245561
0.003793549
0.018434008
0.033875396
0.044521025
0.050280113
0.051447959
0.048097504
0.040030097
0.026953032
0.013866573
0.0049107517
0.019455382
0.033714347
0.043436701
0.048668231
0.049728397
0.046695325
0.03935398
0.027366687
0.015118061
0.0062937535
0.020335751
0.033598431
0.042504913
0.047262645
0.048226674
0.045476938
0.03878498
0.027737038
0.016219856
0.0078608053
0.021239408
0.033609657
0.041750031
0.046094351
0.046976733
0.044469564
0.038361648
0.028203806
0.017254242
0.0019973576
0.001997132
0.0019971068
0.0019971075
0.0019971079
0.0019971092
0.0019971099
0.0019971609
0.0019973341
0.0019733053
0.0019705403
0.0019703705
0.0019703596
0.0019703955
0.0019704331
0.0019704292
0.0019730027
0.0019734239
0.0019518437
0.0019494675
0.0019493134
0.0019493979
0.0019494569
0.001949442
0.0019494077
0.0019515161
0.0019519821
0.0019334085
0.0019313714
0.0019311167
0.0019313216
0.0019313975
0.0019313048
0.0019313607
0.0019330415
0.001933535
0.0019181316
0.0019166519
0.0019163099
0.0019167805
0.0019168808
0.0019165821
0.0019167081
0.0019176305
0.0019181166
0.0019070139
0.0019069311
0.0019068138
0.0019082383
0.0019087983
0.0019074461
0.001907225
0.0019065867
0.0019068072
0.0019022673
0.0019058829
0.0019078085
0.0019122593
0.0019128667
0.0019101686
0.0019072684
0.0019022133
0.0019014495
0.0019071572
0.0019193499
0.0019299437
0.0019417542
0.0019458524
0.0019306253
0.0019242984
0.0019094043
0.0019048206
0.0019230931
0.0019499558
0.0020274617
0.002994501
0.0039118176
0.0022769622
0.0019582957
0.0019318664
0.0019179585
0.0019447983
0.0020267263
0.0045750988
0.01257982
0.015189564
0.0087563819
0.0024332067
0.0019687584
0.0019365945
0.0019606055
0.0025591133
0.011236108
0.023383496
0.026394232
0.018003114
0.0056863825
0.0020938579
0.0019513535
0.0019643345
0.0043783487
0.017188854
0.029393567
0.032173402
0.024221211
0.010238155
0.002585404
0.0019563532
0.0019617496
0.0068461232
0.020768994
0.031957276
0.034394831
0.027345474
0.013416651
0.0037435584
0.0019585985
0.0019882564
0.009013828
0.022893638
0.032959511
0.03511192
0.028870549
0.015679455
0.0055092135
0.0019720585
0.002075119
0.010720834
0.02428038
0.033398349
0.035326906
0.029716683
0.017545951
0.0074424774
0.0020317395
0.0022687191
0.012235733
0.025309695
0.033610825
0.035357451
0.030277402
0.019133195
0.0092137468
0.0021710932
0.002665115
0.013754902
0.02611396
0.033683406
0.035273966
0.030664177
0.020457112
0.010845664
0.002457012
0.0033084494
0.015200255
0.026740042
0.033649019
0.035100281
0.030910048
0.021551717
0.012383707
0.0029579357
0.00418543
0.016489879
0.02721372
0.033535648
0.034862496
0.031043988
0.022448486
0.013795466
0.0037357916
0.0052988216
0.017609125
0.027571236
0.033377061
0.034592694
0.031102562
0.023180798
0.01504977
0.0048188776
0.0066265246
0.018587845
0.02788476
0.033223775
0.034329848
0.031150563
0.023813237
0.016155623
0.0061914297
0.0081304111
0.019557965
0.028313108
0.03315792
0.034136729
0.031304569
0.02453611
0.017192542
0.0078055721
0.0019973939
0.0019972647
0.0019971658
0.001997139
0.001997178
0.0019973262
0.0019735832
0.0019732631
0.0019732392
0.0019707079
0.0019733647
0.0019733259
0.0019522499
0.0019518461
0.0019518809
0.0019497047
0.0019520822
0.0019520089
0.0019339196
0.0019335211
0.0019335629
0.0019316379
0.0019338709
0.0019337885
0.0019186839
0.0019185734
0.0019186088
0.0019168055
0.0019187979
0.0019187999
0.0019074139
0.0019082292
0.0019084089
0.0019066165
0.0019080863
0.0019081261
0.001902186
0.0019051648
0.0019060705
0.0019046782
0.0019047045
0.0019040033
0.0019058732
0.0019136132
0.0019166903
0.0019160019
0.0019139844
0.0019105278
0.0019196743
0.0019359164
0.0019437062
0.0019451431
0.0019387055
0.001929888
0.0019385827
0.0019665494
0.0019944098
0.0019947837
0.0019781014
0.0019561033