/*--------------------------------*- C++ -*----------------------------------*\
  =========                 |
  \\      /  F ield         | OpenFOAM: The Open Source CFD Toolbox
   \\    /   O peration     | Website:  https://openfoam.org
    \\  /    A nd           | Version:  8
     \\/     M anipulation  |
\*---------------------------------------------------------------------------*/
FoamFile
{
    version     2.0;
    format      ascii;
    class       volScalarField;
    location    "50";
    object      omega;
}
// * * * * * * * * * * * * * * * * * * * * * * * * * * * * * * * * * * * * * //

dimensions      [0 0 -1 0 0 0 0];

internalField   nonuniform List<scalar> 
72028
(
9.8512345
9.8563823
8.6194706
8.61794
7.6321046
7.6299843
6.8547459
6.8526433
6.2312599
6.2290311
5.7275437
5.7257398
5.322766
5.3219315
5.0041315
5.0056736
4.7582515
4.7631537
4.5617915
4.5703187
4.3854374
4.3949244
4.2124645
4.2196212
4.0449653
4.0506275
3.8899219
3.8998638
3.7539279
3.7687112
3.6506344
3.6933743
3.6009048
3.6832858
3.6432168
3.7378723
3.7727062
3.8391976
3.9256159
3.9496169
4.0229912
4.0293872
4.0464447
4.0544512
9.8530041
9.8429454
9.8406102
9.8402092
9.8408521
9.8448686
9.8566011
8.6161313
8.4792515
8.4745261
8.472738
8.4758923
8.612168
8.6164789
7.6295303
7.5244046
7.5221755
7.5205841
7.5222932
7.6276617
7.6296926
6.8521998
6.7663252
6.7643365
6.7625263
6.764256
6.8502845
6.8529742
6.2287998
6.1567179
6.154213
6.1519452
6.1545837
6.2264753
6.2300722
5.7253869
5.6643947
5.6615229
5.6586915
5.6624301
5.7225267
5.7269961
5.3211953
5.2721796
5.2703758
5.2671574
5.2710373
5.3181325
5.3230233
5.0034319
4.9725608
4.9751743
4.9716397
4.9761971
5.0021056
5.0046671
4.7587769
4.7518442
4.7369781
4.7412401
4.7684291
4.7640345
4.7578439
4.5637688
4.572805
4.8341038
4.9755666
4.6755799
4.5784144
4.5601187
4.3873358
4.5970437
5.4628625
5.8885004
5.0163712
4.4188291
4.3828125
4.2122924
4.8074228
6.2760309
6.800732
5.5758464
4.2857247
4.2086645
4.0444241
5.1110622
6.7723127
7.1126104
6.1177305
4.2729212
4.0399581
3.8889304
5.4835932
6.8630175
7.0707595
6.402821
4.4907056
3.884063
3.7710052
5.7586571
6.7536159
6.8805749
6.437171
4.8321313
3.7431462
3.7122739
5.8747225
6.5499369
6.6252132
6.3328159
5.1115475
3.6375049
3.7356947
5.8389659
6.2837811
6.3325213
6.142283
5.2556098
3.598591
3.8582756
5.6990103
5.9850063
6.0181648
5.8939113
5.2719867
3.6427989
4.0345976
5.4924327
5.6752552
5.69761
5.6172406
5.1901623
3.7687084
4.1589737
5.2534059
5.3693631
5.3835832
5.3330569
5.0409282
3.922434
4.1987387
5.003114
5.0763584
5.083937
5.0541841
4.851566
4.0387106
4.1726948
4.7615321
4.8035418
4.8048713
4.7923677
4.6470078
4.0872646
9.8498525
9.8401188
9.8396133
9.8395943
9.8396007
9.8395952
9.8396312
9.8408262
9.853435
8.6136871
8.4714147
8.4669063
8.4650159
8.4646707
8.4655211
8.4685612
8.4775747
8.6147563
7.6277534
7.5201037
7.5164947
7.5138541
7.5131511
7.5146422
7.5180064
7.5233848
7.6282388
6.8502878
6.7623875
6.7582146
6.7549434
6.7539351
6.756038
6.7599849
6.7654593
6.8509542
6.2265804
6.1519972
6.1457241
6.140873
6.1394534
6.1427465
6.148606
6.156385
6.2276546
5.7232514
5.6588467
5.6514797
5.6452975
5.6440369
5.6478167
5.6549993
5.6649964
5.7244099
5.3199804
5.2674929
5.2685322
5.2730822
5.2729599
5.2763715
5.2665437
5.2746983
5.3204224
5.0048944
4.9771766
4.9527223
5.1152097
5.2218671
4.9817901
4.9928723
4.978021
5.0028406
4.7642631
4.7480546
5.5125463
7.6274064
8.1128418
6.6390924
4.9286616
4.766484
4.7580783
4.5742112
4.9485866
8.0736985
9.7305763
9.9814592
9.1741941
6.3705944
4.6011819
4.5630402
4.4005631
6.1346935
9.0392142
9.832115
9.9728194
9.5484082
8.0933658
4.6844977
4.3870689
4.2279272
7.2354012
8.8590616
9.3690372
9.4668257
9.1705968
8.3715699
5.0723849
4.2119927
4.067205
7.4739856
8.4625085
8.8506665
8.9226231
8.6961365
8.1105278
5.5866321
4.0415979
3.9621671
7.297302
8.0508794
8.3413401
8.3933158
8.2247451
7.7696899
6.0433283
3.8866665
3.9863812
7.0323874
7.6150491
7.8152558
7.8480418
7.7350115
7.4047568
6.247424
3.7516629
4.2049645
6.7417163
7.1570036
7.2791971
7.295542
7.2307804
7.0123149
6.2326975
3.6873071
4.4981525
6.4257301
6.6957211
6.756781
6.7609471
6.7329712
6.605111
6.0883087
3.7144433
4.7223422
6.0915641
6.2504243
6.2675016
6.2635437
6.2611562
6.2005351
5.8673222
3.8643362
4.8109668
5.7539075
5.8339969
5.8213012
5.8123253
5.8266147
5.8129647
5.6066953
4.0736416
4.7802155
5.4260114
5.4523982
5.4205288
5.408686
5.4332211
5.451082
5.3326726
4.2225545
4.6719824
5.1163335
5.1066528
5.0629913
5.0496934
5.0800972
5.1186382
5.0609048
4.272243
4.5215312
4.8304378
4.7948062
4.7445692
4.730842
4.7639223
4.8160402
4.8039292
4.2428511
9.8530097
9.840108
9.8395728
9.8395646
9.8395682
9.839568
9.8395673
9.8395703
9.8395721
9.8410969
9.8509532
8.6162425
8.4712269
8.4649071
8.4621912
8.4612753
8.4611303
8.461612
8.4631616
8.4672529
8.4787081
8.6178679
7.6299467
7.5199078
7.5138572
7.5089003
7.5061591
7.5055316
7.5071773
7.5110286
7.5166967
7.5234434
7.6316689
6.85297
6.7622135
6.7551571
6.7478157
6.7424819
6.7411578
6.7445893
6.7514254
6.7585927
6.7652537
6.8545752
6.2300409
6.1518314
6.1417064
6.1309607
6.1223547
6.1196841
6.1261847
6.1362499
6.1468493
6.1560239
6.2313511
5.7266373
5.6587768
5.6477226
5.6358531
5.6404137
5.633668
5.6329734
5.6411459
5.6533752
5.6645987
5.727672
5.3221285
5.2680158
5.2673012
5.2294534
5.3507638
5.4567606
5.2640902
5.2685364
5.2661946
5.2737493
5.3225644
5.0041042
4.9777419
5.0093903
7.0634159
9.5811586
10.044827
8.638423
5.4828062
5.0014756
4.9745167
5.0023147
4.7594239
4.7485375
6.9904426
10.574648
11.797547
12.028286
11.34222
9.3170457
5.0886425
4.75785
4.753029
4.5643585
4.9501201
9.4502468
11.168596
12.089627
12.29527
11.698065
10.48064
7.2832707
4.5786576
4.5527219
4.3878056
6.1401732
9.6562162
10.793239
11.558372
11.737153
11.213103
10.272756
8.6738791
4.5525561
4.3744698
4.2126356
7.2404542
9.251059
10.071476
10.641912
10.767196
10.373405
9.6838264
8.6449647
4.7341086
4.2014601
4.0446595
7.4788399
8.7619837
9.3863797
9.8087207
9.9037593
9.6077271
9.0876527
8.3033669
5.0404183
4.0347024
3.8892256
7.3026192
8.2826327
8.7219963
8.971535
9.0190056
8.8524127
8.5161217
7.9282383
5.4354846
3.8800455
3.7714678
7.0380892
7.7857506
8.043998
8.1451385
8.1570421
8.0940835
7.9287702
7.5237249
5.7522615
3.7400784
3.7127002
6.7466872
7.2713294
7.3859148
7.3894243
7.3805971
7.3818841
7.3396369
7.0957754
5.8923426
3.6223321
3.7357133
6.4296189
6.7632423
6.7781694
6.725491
6.7060351
6.7425895
6.7774231
6.6601845
5.8656339
3.543828
3.857264
6.0945767
6.282705
6.2338221
6.151684
6.1274556
6.1816242
6.2608781
6.2340058
5.7255583
3.5483929
4.0324478
5.7563263
5.8413757
5.7539013
5.6580637
5.6322518
5.6940075
5.7969925
5.8306758
5.5156622
3.6543512
4.1565425
5.4280591
5.4428425
5.3333684
5.2327756
5.2070562
5.2708849
5.3851005
5.4576426
5.2730803
3.8285173
4.1966412
5.118172
5.0857102
4.9647514
4.8645052
4.8397532
4.9026033
5.02055
5.1173852
5.0208594
3.9777963
4.1711336
4.832143
4.7663274
4.6417634
4.545661
4.522523
4.5821632
4.698169
4.8090541
4.7767606
4.0414337
9.8429441
9.8395989
9.8395561
9.8395451
9.8395325
9.839529
9.8395331
9.8395465
9.8395689
9.8396869
9.8482462
8.4790677
8.4663869
8.4618568
8.4598561
8.4589104
8.4587242
8.4592238
8.4606379
8.4635297
8.4694421
8.6137819
7.5240389
7.5157927
7.5084238
7.5029018
7.4995028
7.4987362
7.5007721
7.5053581
7.5118028
7.5176587
7.6282838
6.7657886
6.7574016
6.7472651
6.7366534
6.7295666
6.727818
6.7322599
6.7416923
6.7526132
6.7594799
6.8509929
6.1561459
6.1449262
6.1304605
6.1128021
6.099293
6.0991496
6.1033395
6.1220674
6.1381619
6.1486425
6.2278217
5.6639134
5.6509412
5.6356002
5.6173718
5.56515
5.5691894
5.5473055
5.6393761
5.6426353
5.6553866
5.7251081
5.2720593
5.268519
5.2294998
5.9532256
8.443763
8.9764387
7.3604383
5.3463226
5.2738426
5.2657308
5.3228117
4.9727661
4.9530618
7.0636485
11.101444
12.644117
12.915776
12.073313
9.5443345
5.2317514
4.9765264
5.0106069
4.7521613
5.5139072
10.581519
12.656189
13.888277
14.157562
13.36096
11.768866
8.4740855
4.7681116
4.7762573
4.5731117
8.0805885
11.179261
12.92202
14.37319
14.71521
13.697035
12.048949
10.131043
5.2483236
4.5896558
4.5979576
9.0489559
10.803569
12.349227
13.634892
14.245162
13.180876
11.511631
10.045882
6.6645379
4.4236993
4.8096859
8.8687678
10.079049
11.250846
12.376055
12.976023
12.020174
10.595722
9.5210364
7.5294747
4.2680853
5.1132351
8.4699697
9.3912201
10.237672
11.141023
11.385557
10.677505
9.7713849
8.9640733
7.6093291
4.1749859
5.4844367
8.0564201
8.7253046
9.1903984
9.5573458
9.6395028
9.3722991
8.9463611
8.4272825
7.3929067
4.1925398
5.7584124
7.6200354
8.0467704
8.2155913
8.2926081
8.3017425
8.2460158
8.1302781
7.8740801
7.1062475
4.376407
5.8740871
7.1617292
7.3885615
7.3749452
7.3121389
7.2899035
7.3297346
7.3811215
7.3128223
6.7930616
4.6278729
5.8385135
6.7001236
6.7807586
6.6669777
6.5421993
6.5076656
6.5877751
6.7208137
6.77064
6.4561275
4.839568
5.6990828
6.2545125
6.2363246
6.0723599
5.9241969
5.8860699
5.9804115
6.148841
6.2674945
6.1059424
4.9493962
5.4931493
5.8378259
5.7562847
5.5705027
5.4176816
5.3798534
5.4763055
5.6560531
5.812143
5.7574125
4.9459842
5.2548076
5.4560176
5.3356146
5.1435915
4.9949374
4.9590593
5.0521335
5.2310405
5.4054533
5.4225881
4.8524818
5.0052793
5.1100873
4.9668489
4.7771979
4.6366575
4.6033435
4.690722
4.8627411
5.0439427
5.1084693
4.7018842
4.7643296
4.7980487
4.6436936
4.4629578
4.3335477
4.3032901
4.3832437
4.5437677
4.7229232
4.8196837
4.524565
9.8512114
9.8406062
9.8395761
9.8395409
9.8395194
9.8394992
9.8394906
9.8395001
9.8395228
9.8395494
9.8396138
9.8425179
8.6193466
8.4741645
8.4643805
8.4605339
8.4585899
8.4576229
8.4573806
8.4578752
8.4593149
8.461932
8.4675966
8.610725
7.6321281
7.521603
7.5130196
7.5051538
7.4989845
7.4951801
7.4942642
7.4965713
7.5017146
7.5087359
7.5169464
7.6271219
6.8549744
6.7635614
6.7540282
6.7413358
6.7289182
6.7205334
6.7184446
6.7241726
6.7346112
6.7479284
6.7587928
6.8497717
6.2318614
6.1533064
6.1400547
6.1212933
6.0986888
6.1050211
6.099615
6.0952493
6.1085596
6.1313782
6.1468749
6.2259388
5.7285041
5.6606948
5.6448363
5.6397338
5.5646948
5.6985048
5.784103
5.5927018
5.6180788
5.636653
5.6528342
5.7227051
5.3238391
5.2700571
5.2732183
5.3501994
8.4438779
11.055731
11.515167
10.099532
6.4207691
5.2160559
5.2671917
5.3209206
5.0052228
4.9755419
5.1150857
9.5846857
12.652403
13.994789
14.262946
13.458712
11.489164
6.7266935
4.9679988
5.012341
4.7597336
4.7379962
7.6270312
11.815931
13.907964
15.404689
15.719051
14.750606
12.909316
10.370515
5.156485
4.7824856
4.5630721
4.8329561
9.7425019
12.118026
14.41064
16.403996
16.720084
15.505281
13.18756
11.057761
7.0581839
4.602944
4.3864085
5.4583842
9.8487308
11.587442
13.671572
16.67342
17.265642
15.91655
12.599485
10.703159
8.4407002
4.5023817
4.2131226
6.267416
9.3841192
10.663315
12.401563
15.657628
17.540908
15.189695
11.45183
10.000136
8.5455448
4.5924342
4.0453328
6.7637018
8.8625398
9.8234188
11.15506
12.76414
13.058289
11.992439
10.367518
9.3275836
8.2279027
5.001791
3.8901309
6.8570349
8.3511635
8.9824316
9.5657514
10.102031
10.210702
9.841626
9.2422236
8.6777254
7.8530373
5.4168354
3.7536079
6.7499026
7.8238301
8.154088
8.2986927
8.3836696
8.3942808
8.3329531
8.2177559
8.0142174
7.4641194
5.6450952
3.6488583
6.5485355
7.2870154
7.3971985
7.3170226
7.2180063
7.1882801
7.2507538
7.3518351
7.3680792
7.0522686
5.717078
3.5955453
6.2842559
6.7640501
6.7323888
6.5463146
6.3772359
6.3333239
6.4414537
6.6326948
6.7692527
6.6278969
5.6773768
3.6313155
5.9868237
6.2742874
6.1578528
5.9277511
5.7382484
5.6912706
5.8117937
6.0343027
6.2311529
6.2097142
5.5575485
3.7531892
5.6779724
5.8276321
5.6636044
5.4207979
5.232241
5.1867343
5.3057569
5.5323524
5.7554342
5.8124828
5.3818322
3.9037702
5.3726783
5.4264229
5.2377726
4.9976977
4.8188999
4.7765299
4.8885964
5.1070695
5.3377335
5.4443599
5.1707806
4.0030784
5.0801241
5.0684628
4.8690221
4.6391133
4.4732816
4.434516
4.5378073
4.7430495
4.9711182
5.1082795
4.9413781
4.0299699
4.8077335
4.7496197
4.5497166
4.3357149
4.1853965
4.1506353
4.2437276
4.4317389
4.6494427
4.8039153
4.7081283
9.8563936
9.8402098
9.8395757
9.8395322
9.8394994
9.8394803
9.83947
9.8394827
9.8395099
9.8395368
9.8396101
9.8414394
8.6179067
8.4725972
8.4641008
8.4603256
8.45832
8.4574597
8.4571824
8.4576272
8.4590662
8.4615927
8.4668485
8.4801028
7.6301884
7.5204142
7.5124752
7.5044882
7.4981382
7.4943143
7.4933375
7.4956487
7.500951
7.5080345
7.515978
7.5231973
6.8531436
6.7622529
6.7532449
6.7400074
6.7270852
6.7184142
6.7160612
6.7221695
6.7330694
6.7468094
6.7577218
6.7647212
6.2299295
6.151479
6.1388576
6.1186446
6.0984101
6.0995878
6.0961033
6.1038025
6.1049028
6.1296937
6.1456719
6.1551682
5.7265199
5.658157
5.6437772
5.6331278
5.5689382
5.7833902
5.9292796
5.6271249
5.5814261
5.6361141
5.6519552
5.6630507
5.3228711
5.267034
5.2733633
5.4546188
8.9752107
11.518465
11.954944
10.605689
6.9126064
5.2263868
5.268384
5.2704313
5.0057783
4.9721915
5.2190338
10.045172
12.932075
14.276668
14.551231
13.736244
11.813378
7.2750412
4.9485885
4.9686618
4.7634192
4.7415083
8.096501
12.047592
14.19374
15.753825
16.068935
15.085033
13.167902
10.679828
5.3533001
4.7425393
4.5706649
4.9664596
9.987745
12.331233
14.787452
16.808778
17.030831
15.974663
13.488558
11.249955
7.5241431
4.5614404
4.3950362
5.8576663
9.9895305
11.785565
14.351772
17.436525
17.353106
16.964937
12.93883
10.85595
8.7189753
4.478913
4.2195386
6.7679091
9.484864
10.803782
13.059189
17.697616
17.406996
17.427615
12.230718
10.110193
8.6964385
4.5516514
4.050114
7.0902739
8.9398721
9.9332456
11.426613
13.097902
13.275549
12.375788
10.541212
9.4110069
8.3340684
4.7103843
3.8985348
7.0560434
8.4089953
9.0419964
9.662886
10.226937
10.328887
9.9663772
9.3176973
8.7315284
7.9408172
4.978375
3.7660878
6.8711851
7.8620955
8.1752119
8.3172636
8.4031216
8.4137752
8.3549815
8.2370119
8.040861
7.5305878
5.2690494
3.6857372
6.6191334
7.3081207
7.3953119
7.3013706
7.1942213
7.1633137
7.2318437
7.3429386
7.3756035
7.0963464
5.4699963
3.6684977
6.3292904
6.7721845
6.7182255
6.5167153
6.3378201
6.2922642
6.4071486
6.6108647
6.764943
6.6541242
5.5313304
3.7146499
6.0173584
6.2735808
6.1377483
5.8935065
5.6948985
5.6463113
5.7730349
6.0072861
6.2200554
6.2234064
5.4759045
3.8088683
5.6986779
5.8213132
5.6410814
5.3861311
5.1897722
5.1428605
5.2671881
5.5039909
5.740734
5.817885
5.3341027
3.9162535
5.3859935
5.4167754
5.2147379
4.9644647
4.7791367
4.7355836
4.8520958
5.0792142
5.3213731
5.4444008
5.1399759
3.9979561
5.0873744
5.0570172
4.8465139
4.6080651
4.4367919
4.3970356
4.5040376
4.7165572
4.9542762
5.1048448
4.9138725
4.0284229
4.8089579
4.7374741
4.5284705
4.3074026
4.1526097
4.1170264
4.2131788
4.4072396
4.6329836
4.7982005
4.6787595
9.8408621
9.8395669
9.8395314
9.8395079
9.8394762
9.8394675
9.8394803
9.8395074
9.8395405
9.8396191
9.8432163
8.4760004
8.4652172
8.4611964
8.4593038
8.4582553
8.4579668
8.4584119
8.4598189
8.4624955
8.4686165
8.6115482
7.5225076
7.5143689
7.5067237
7.5008646
7.4971714
7.4962371
7.4983994
7.503295
7.5099525
7.5172308
7.6269108
6.7644306
6.7558127
6.7441467
6.7323068
6.7247918
6.7228141
6.727501
6.7377853
6.7499503
6.7587374
6.8491811
6.1544763
6.142589
6.1258501
6.1033749
6.0956481
6.1041578
6.0965674
6.1148838
6.134389
6.1472234
6.2246239
5.6620342
5.6479397
5.632908
5.5472156
5.592309
5.626338
5.5613751
5.6247351
5.6369081
5.6539502
5.7206993
5.2708596
5.2761533
5.264947
7.3529573
10.10098
10.605943
8.9889837
5.7445203
5.2515639
5.268917
5.3179817
4.9767394
4.9811489
8.6257304
12.087395
13.476815
13.745088
12.939942
10.806871
5.8713006
4.9867841
5.0069454
4.7688496
6.6053403
11.356119
13.396821
14.793765
15.106382
14.195798
12.469398
9.7382945
4.9317767
4.7760429
4.6700125
9.1598059
11.729169
13.766203
15.601419
16.017279
14.782011
12.727713
10.719457
6.1834511
4.5939548
4.9920516
9.5559125
11.253925
13.286436
16.104075
17.072912
15.464006
12.147207
10.451989
7.8274724
4.45853
5.5256429
9.184191
10.41315
12.09481
15.360008
17.561866
14.882414
11.07707
9.8172085
8.2228466
4.4367158
6.0569645
8.7123859
9.6415955
10.722799
12.042414
12.402344
11.403672
10.115745
9.1891215
8.0257533
4.6437703
6.3563872
8.2406345
8.8803691
9.4014896
9.8653616
9.9789946
9.6478595
9.1268031
8.5857974
7.694057
5.0238195
6.4067657
7.7495115
8.1168702
8.2665701
8.347249
8.3622798
8.3054483
8.1915621
7.9676645
7.3397848
5.3400137
6.3124225
7.2439528
7.4004756
7.3452399
7.2608197
7.2367903
7.291932
7.3731627
7.3554055
6.9639169
5.5005158
6.1297677
6.7449402
6.7579238
6.6000599
6.4492233
6.4108567
6.5089498
6.6767114
6.7783477
6.5719041
5.5260518
5.886745
6.2720068
6.1944573
5.990481
5.8181106
5.7759848
5.8868795
6.0876581
6.2531155
6.1787027
5.4519662
5.613662
5.8364281
5.7049104
5.4847606
5.3110578
5.2696241
5.3802821
5.5881586
5.7844591
5.7990956
5.3078115
5.3319744
5.4420883
5.2802702
5.059367
4.8931427
4.8541604
4.9591737
5.1619001
5.370166
5.4427718
5.1179189
5.0549923
5.0881306
4.9107784
4.6970184
4.5417648
4.5058184
4.6031962
4.795253
5.0046867
5.1142824
4.9026497
4.7946501
4.7712189
4.5893077
4.3887085
4.2471433
4.2147029
4.3029236
4.480076
4.6824516
4.8149368
4.6798577
9.8448797
9.8396201
9.8395439
9.8395192
9.8395083
9.8395037
9.8395117
9.8395232
9.8395532
9.8398403
9.8515543
8.6125326
8.4687291
8.4632855
8.4611082
8.4602914
8.4601297
8.460576
8.4617966
8.4649189
8.4737747
8.6142279
7.6282456
7.5181959
7.5112418
7.5060701
7.5030426
7.5023697
7.5042348
7.5082532
7.5141091
7.5208741
7.628048
6.8509406
6.7600886
6.7516322
6.7424615
6.7359565
6.7344638
6.7386615
6.7468687
6.7557785
6.7629481
6.8507025
6.2267615
6.1485942
6.1364214
6.122767
6.1096816
6.1059472
6.1154877
6.129521
6.1427295
6.1531984
6.2271348
5.7223163
5.6551317
5.6414705
5.6399377
5.6184533
5.5827677
5.6248143
5.6367781
5.6488566
5.6613474
5.7242124
5.3178861
5.2672351
5.2686577
5.3453496
6.4149253
6.9055327
5.7420847
5.2438542
5.2688661
5.2717535
5.3210241
5.0022267
4.9939003
5.4742116
9.5409904
11.498584
11.817012
10.803984
7.6060707
4.9931076
4.9793308
5.0059835
4.7644829
4.92373
9.3063878
11.790724
12.939318
13.181095
12.470372
10.860911
6.5674036
4.7768264
4.7668835
4.5788356
6.3244437
10.495908
12.088299
13.238774
13.513112
12.730862
11.357843
9.2015363
4.7385843
4.5787468
4.417696
8.0609662
10.297435
11.558906
12.657885
12.972702
12.154202
10.94225
9.5444304
5.2475843
4.4061735
4.280888
8.3655159
9.7105226
10.636621
11.495203
12.268161
11.086539
10.177958
9.1735462
6.0272888
4.2341333
4.2529177
8.1098248
9.112561
9.8026058
10.397427
10.563748
10.125172
9.4627735
8.7020536
6.6304899
4.0697517
4.4403937
7.7707127
8.5381889
8.9701136
9.262223
9.3331165
9.1345666
8.7685798
8.2336243
6.8143267
3.9680031
4.7652176
7.4084552
7.9479101
8.1488604
8.2321645
8.2478693
8.1974919
8.0644532
7.7484656
6.7274531
3.9788896
5.0467224
7.017776
7.3561135
7.3961232
7.3629775
7.3510133
7.3776362
7.3883065
7.2460156
6.5352546
4.1655391
5.2025644
6.6114049
6.7915776
6.7332509
6.6417375
6.6171505
6.6801261
6.7696081
6.7478968
6.2811856
4.4291012
5.2324047
6.207137
6.2730816
6.1593573
6.0418668
6.0123424
6.0903072
6.2190881
6.2748156
5.9906733
4.6271829
5.1628547
5.8196013
5.8075857
5.665066
5.5387989
5.5081563
5.5902506
5.7358911
5.8387104
5.6856675
4.7034891
5.0235234
5.4575982
5.3943559
5.2388411
5.1126385
5.0827141
5.163586
5.3137905
5.4437313
5.3819927
4.6682622
4.8414414
5.1249276
5.0287167
4.8695829
4.7479095
4.7195404
4.7966313
4.9446469
5.0890506
5.089939
4.5616759
4.6418411
4.8221226
4.7054037
4.5497496
4.4359445
4.4097706
4.4812069
4.6219845
4.7713062
4.8181918
4.4206045
9.8566213
9.8408403
9.8395691
9.8395528
9.8395335
9.8395317
9.8395437
9.8395568
9.8396338
9.8423437
8.6168104
8.4780649
8.4677887
8.4643435
8.463029
8.4629095
8.4636739
8.4654486
8.4693283
8.6109722
7.63007
7.5238868
7.5173916
7.5128958
7.5102222
7.5097709
7.5115125
7.5148212
7.5183866
7.6279083
6.8532981
6.7656696
6.7592728
6.7537537
6.7494811
6.7485543
6.751519
6.7564871
6.7607537
6.8506194
6.2304579
6.1560598
6.1473987
6.1391842
6.1327487
6.1311155
6.1355833
6.1431482
6.1503118
6.2255969
5.7273003
5.664288
5.6538975
5.6434772
5.6376519
5.636969
5.6374744
5.6488602
5.6571496
5.72018
5.3231946
5.2742015
5.2670464
5.2745591
5.2161314
5.2259695
5.2536097
5.2687676
5.2670182
5.3144598
5.0048036
4.9781783
5.0019658
5.2279134
6.7166998
7.2577864
5.8591259
4.9923297
4.9816652
4.9987417
4.7584518
4.7666916
5.0824742
8.46557
10.377884
10.677383
9.7251649
6.5541277
4.76874
4.7640369
4.5612943
4.6006667
7.2570945
10.145212
11.079049
11.258427
10.716421
9.1919558
5.1200743
4.5852269
4.3839339
4.6709816
8.6707509
10.06734
10.727435
10.869804
10.454226
9.5411553
6.6604447
4.4368574
4.2092356
5.0382112
8.6538629
9.5423312
10.021971
10.125353
9.8230197
9.1726001
7.6211005
4.3791262
4.0401171
5.5305023
8.3147771
8.9823296
9.3453863
9.4252617
9.1966708
8.7032107
7.668616
4.473118
3.8839708
5.9877452
7.9397236
8.4424811
8.6919181
8.7438916
8.5935822
8.2349475
7.4294374
4.77096
3.7440428
6.2057735
7.5343694
7.8870782
8.0258065
8.0510617
7.9745597
7.7498334
7.1414427
5.1347772
3.6310055
6.2068896
7.1054645
7.3242031
7.3778263
7.3839535
7.361137
7.2474208
6.8284131
5.4042087
3.5826756
6.0725477
6.6690832
6.7806808
6.7776218
6.771831
6.7830218
6.7491791
6.4870141
5.5185204
3.6115206
5.8586771
6.2422224
6.2763709
6.2384137
6.2257798
6.2569012
6.2759071
6.1311278
5.4924883
3.7215613
5.6025806
5.8382642
5.819996
5.761763
5.7455177
5.7875183
5.8396138
5.7779136
5.3672384
3.8687732
5.3314543
5.4646185
5.4124089
5.3432692
5.3254028
5.3726495
5.4444767
5.4398347
5.1832476
3.9888485
5.0615715
5.1238042
5.0501557
4.9759801
4.9577064
5.0067247
5.0896685
5.1236786
4.969341
4.0465214
4.8060477
4.814996
4.7284688
4.6536959
4.6359037
4.6841347
4.7718213
4.8328736
4.7460491
9.8534386
9.8411077
9.8396986
9.8396157
9.8396146
9.83963
9.8398532
9.8423327
9.8519209
8.615066
8.4792093
8.4701929
8.4687646
8.468311
8.4699414
8.4746313
8.6113859
8.6160733
7.6283916
7.5240386
7.5186616
7.5184035
7.51787
7.5192874
7.522159
7.6283125
7.6295904
6.8509346
6.7658276
6.7605465
6.7602618
6.7595965
6.7610104
6.7643814
6.8507731
6.8523172
6.2275469
6.1564001
6.1496428
6.1481705
6.1471244
6.149114
6.1544256
6.2259381
6.2288595
5.7241867
5.6647712
5.6562153
5.6538173
5.6527267
5.6549205
5.6619812
5.7208968
5.7253735
5.3201372
5.2741063
5.266269
5.2677317
5.268739
5.2688858
5.2719281
5.3151092
5.3202231
5.0025959
4.975366
4.9765086
4.9707322
4.9477355
4.9865238
4.9791259
4.9989824
4.9996629
4.7579947
4.7586087
4.7671843
5.1515964
5.3433222
4.9262666
4.7771354
4.7638145
4.7495108
4.562899
4.5784433
5.2395803
7.043967
7.4995799
6.1520647
4.7341556
4.584394
4.548516
4.3866625
4.5466579
6.6473989
8.4374637
8.7082608
7.7980186
5.2301705
4.4350246
4.3701205
4.211223
4.7203819
7.5218553
8.5497617
8.6954014
8.208545
5.995767
4.3756473
4.1974288
4.0406989
5.0176658
7.6095489
8.2349603
8.3356988
8.0173298
6.6009362
4.4651829
4.0314173
3.8853167
5.4049394
7.3978675
7.8592794
7.9430849
7.687473
6.7944029
4.7585052
3.8771803
3.7486845
5.7239831
7.1122247
7.469113
7.5332962
7.3354118
6.7143882
5.1204694
3.7388523
3.6778079
5.8709716
6.7983855
7.0566152
7.0992681
6.9616153
6.5256659
5.3907607
3.6238798
3.6927064
5.8516801
6.4606742
6.6320004
6.6570689
6.5710908
6.2740063
5.5076359
3.5493686
3.824903
5.7174168
6.1100096
6.2136729
6.2262468
6.178754
5.9851952
5.484521
3.5596809
4.0281936
5.5117693
5.7612585
5.8162654
5.8205391
5.7995579
5.6815143
5.3616619
3.6616415
4.1831095
5.2719952
5.4263201
5.4479185
5.4468405
5.4433763
5.3788616
5.1792743
3.8243459
4.2425159
5.0213369
5.1121791
5.1116028
5.1070894
5.1149672
5.0875686
4.9663922
3.973728
4.2207294
4.7789348
4.8234101
4.8070071
4.800259
4.8156745
4.8165328
4.7439103
4.0492701
9.8510293
9.8482449
9.8425108
9.8414516
9.8432102
9.8515552
8.6179665
8.6144223
8.6117413
8.481074
8.6127743
8.6148901
7.631588
7.628919
7.6284433
7.5246384
7.6289455
7.6289332
6.8543821
6.8515892
6.8508891
6.7661404
6.851439
6.8518155
6.2311427
6.2282956
6.2268735
6.1562637
6.2270208
6.2285424
5.7275122
5.7255242
5.7234375
5.6635898
5.7224678
5.7252906
5.3224314
5.3234712
5.3215634
5.270864
5.3186979
5.3214515
5.0023274
5.0111089
5.0125428
4.9691136
5.0069763
5.0059819
4.7534507
4.776402
4.7823708
4.7429026
4.7758567
4.7665184
4.5529609
4.589176
4.6024229
4.5623234
4.5936251
4.5780237
4.3743137
4.4225252
4.4995743
4.4747444
4.4564683
4.4054162
4.2011119
4.2659083
4.583864
4.5404424
4.4279399
4.2330226
4.0343241
4.1711869
4.9841949
4.6902327
4.6170988
4.0687829
3.8797414
4.1839831
5.3975787
4.9479837
4.9857357
3.9622738
3.7395866
4.3610261
5.6278646
5.2347952
5.3028626
3.9634416
3.6205855
4.6082608
5.7029255
5.43833
5.4699989
4.134845
3.5386962
4.8193685
5.6661171
5.5062923
5.5025377
4.3941036
3.5359367
4.9320718
5.5489044
5.4578081
5.4343904
4.5962324
3.6312368
4.933124
5.3755412
5.3218861
5.2950385
4.6803409
3.7981947
4.8439257
5.1666317
5.1321699
5.1088661
4.6520879
3.9483893
4.6966803
4.9390642
4.9096567
4.896395
4.5501174
4.0181816
4.52138
4.7071828
4.6763195
4.6755544
4.4117254
9.8510294
9.8515575
8.9075146
8.9031806
9.8482445
9.8432014
8.9019161
8.8974221
9.8565188
8.9101411
8.9088857
9.8425002
9.8414421
8.8965171
9.0496818
9.8512313
8.9089467
8.9100751
9.8414294
9.8425066
9.0497044
8.8961118
9.8431975
9.8482363
8.8975245
8.9015941
9.8515583
9.8510308
8.9028991
8.9074128
4.0070059
4.406188
4.0115611
4.2812732
4.5175936
4.6731561
4.3768757
4.5173341
4.0522152
4.0322638
4.0436207
4.7046349
4.6742029
4.5403596
4.5912765
4.0581585
4.0456528
4.0415836
4.6746595
4.706182
4.5912102
4.5414277
4.6759542
4.524678
4.5192654
4.3825416
4.4166566
4.0418796
4.2900403
4.0403277
9.8519162
8.9056186
9.8566055
8.9067981
9.8534516
9.8423435
8.9043899
8.8963101
8.9067271
9.8423264
9.853432
8.8960016
8.904027
9.8519101
8.9057119
4.0402657
4.0491848
4.051762
4.0472318
4.2158219
4.7424728
4.1545602
4.5853294
4.0760497
4.7461655
4.2436081
4.5867615
4.1770551
4.0833581
4.0828054
9.8534266
8.9044705
9.8566149
9.8423398
8.9069366
8.8962407
8.9043356
9.8423262
9.8566198
8.8960728
8.9068743
4.2153972
4.1540041
4.0485937
4.7439879
4.0450561
4.5866861
4.1765832
4.7456087
4.086978
4.586406
4.0753864
9.8509526
8.907535
9.8515568
8.9031846
8.9075492
9.8515632
8.90285
4.0027626
4.0080219
4.40511
4.2801956
4.0399016
4.4167639
4.2903757
9.8482467
8.9019831
9.8432048
8.8973398
8.9017509
9.8431953
8.8971034
14.260126
12.705018
13.336431
16.034796
16.924769
15.535255
17.436456
14.003657
13.335251
12.658027
16.890009
15.905036
17.42591
15.38568
12.988689
11.392614
11.851663
15.316997
17.396485
13.207196
14.043741
12.333049
11.847208
11.360196
17.38787
15.188908
14.035851
13.15206
4.5182955
4.3776756
4.6746473
4.5194789
4.3825772
4.6772089
4.5202097
9.8425059
8.9100974
8.8962789
9.8565185
9.8414389
8.9088321
9.0495703
9.8512095
8.8960325
8.9100796
9.841418
9.856522
9.0493565
8.9088329
16.525955
17.573317
15.615423
17.313568
17.28843
17.541179
17.582408
13.609586
15.39072
12.672018
16.933872
14.293072
17.457092
13.360152
15.326053
11.407153
13.214939
13.057027
17.551013
11.891604
14.095672
17.551651
13.736873
14.47594
17.697362
17.405891
14.52173
14.658752
15.513445
14.466397
13.674153
17.397538
17.552763
14.647611
14.459211
12.34391
13.15229
11.36438
17.413161
13.001757
14.031508
11.84781
4.7061375
4.0185237
4.5424838
4.0292142
4.6747004
4.024479
4.5936545
4.0663908
4.5429574
4.0488127
4.6780699
4.0693053
4.5938375
4.0581875
9.8414275
8.9088886
9.0496822
9.8512083
9.8425106
8.9101177
8.8963524
9.856396
9.0495819
8.9088602
9.8425026
9.8512147
8.8958525
8.9100145
17.553942
11.89238
14.09615
12.414473
15.360312
11.4164
13.230247
17.417089
14.523204
14.667617
15.699825
17.707278
13.75577
14.524065
17.57066
14.659384
14.478603
17.707817
15.707038
14.520907
13.752144
13.012538
14.049176
11.855279
15.364854
12.39681
13.222472
11.397166
4.6744497
4.0239657
4.5936896
4.0268009
4.7049604
4.0159711
4.5414592
4.0703674
4.5940739
4.0589686
4.7100853
4.070071
4.5446789
4.0517075
9.8432008
8.8978231
9.8482413
8.9020235
8.8973335
9.848248
8.9015071
17.069514
15.582794
17.617953
13.69514
14.36041
12.74565
13.422582
16.097487
17.61946
15.590189
14.361976
13.693618
13.423743
12.749119
17.564563
13.227866
14.096424
12.411902
13.059049
11.409377
11.888337
15.37012
14.094197
13.230495
13.060316
12.41424
11.88817
11.413385
4.6731084
4.5180636
4.5152331
4.3751331
4.5225615
4.5285747
4.3858828
9.8515638
8.903285
9.8509526
8.9075096
8.903176
9.8509574
8.9073742
4.4024074
4.2778432
3.9991666
4.0049127
4.2935114
4.0447127
4.0426619
9.8423364
8.9069588
8.8964422
9.8534349
8.9044271
9.8566211
8.8961469
8.9068014
9.8534337
8.9045414
4.7433667
4.0428316
4.5861036
4.2175705
4.155559
4.0876382
4.5871934
4.0753023
4.2031519
4.1483452
9.8519113
8.9057605
9.8423329
8.9045864
8.896437
9.8566073
8.9069577
9.8534086
8.8965932
8.9043889
9.8566029
8.9069562
8.9057807
4.0464633
4.0536884
4.7451757
4.1581807
4.5871967
4.0627375
4.0559821
4.2018615
4.5855555
4.1472818
4.073677
4.0637424
4.0525811
9.8515503
8.9076489
8.9033106
9.8431984
8.9023237
8.8976689
9.84144
8.896908
9.0498469
9.8512284
9.8565184
8.9101425
8.9089349
9.8425031
9.0501195
8.8968896
9.8563795
9.8512298
8.9090493
8.910276
9.8482456
8.89827
8.9021552
9.8510282
8.9035998
8.9076376
4.4102562
4.0204791
4.2843476
4.6761784
4.3797684
4.5198614
4.6761988
4.5425714
4.5933211
4.0489998
4.0507976
4.0341246
4.0424525
4.7067729
4.5934972
4.5421183
4.0506794
4.0490501
4.0422802
4.0343343
4.5211996
4.5191799
4.3796528
4.0279812
4.2857559
4.0285487
9.542497
9.8506253
9.5412674
9.8554329
9.5449064
9.8571593
9.5439437
9.8531636
9.5439273
9.8537783
9.5460739
9.5420408
9.8564508
9.5441354
9.8511889
9.5410222
9.8519322
9.5446081
9.5412543
9.8566962
9.540869
9.8555197
9.5414035
9.8524839
9.8448824
8.9056912
8.8988082
9.8410962
9.8398471
9.0458738
9.0401419
9.8530077
8.8987545
8.9054649
9.8398454
9.8410791
9.0398586
9.0457238
9.5445655
9.8518398
9.5432605
9.852227
9.5425352
9.5409433
9.8543764
4.6423746
4.1177709
4.4891659
4.7760586
4.8153814
4.6352065
4.6659127
4.1980727
4.4921042
4.1389995
4.8148401
4.7770253
4.663843
4.6348165
9.5414281
9.8525088
9.8408255
8.9019549
9.0439529
9.8408203
9.8396325
9.0438818
9.0363609
9.8498454
9.0436822