/*--------------------------------*- C++ -*----------------------------------*\
  =========                 |
  \\      /  F ield         | OpenFOAM: The Open Source CFD Toolbox
   \\    /   O peration     | Website:  https://openfoam.org
    \\  /    A nd           | Version:  8
     \\/     M anipulation  |
\*---------------------------------------------------------------------------*/
FoamFile
{
    version     2.0;
    format      ascii;
    class       volScalarField;
    location    "50";
    object      p;
}
// * * * * * * * * * * * * * * * * * * * * * * * * * * * * * * * * * * * * * //

dimensions      [0 2 -2 0 0 0 0];

internalField   nonuniform List<scalar> 
72028
(
0.36126735
0.35704986
0.35478523
0.35481468
0.34893709
0.34911767
0.33801861
0.33825582
0.31906792
0.31939437
0.28867639
0.28908515
0.24122192
0.2416206
0.17122014
0.17158025
0.076455718
0.076700661
-0.033511006
-0.0337887
-0.13505088
-0.1358476
-0.20187923
-0.20282526
-0.2232084
-0.22391446
-0.20971887
-0.21013189
-0.17844137
-0.17868936
-0.14153915
-0.14157799
-0.10613819
-0.10607551
-0.076534198
-0.07631592
-0.053693689
-0.053281657
-0.036149565
-0.035661696
-0.022132286
-0.021695959
-0.010454832
-0.0099696938
0.35713724
0.35798343
0.35932041
0.35996634
0.35932642
0.35812505
0.35666353
0.35433719
0.35573315
0.35747644
0.35819232
0.35691809
0.35549404
0.35460452
0.34852493
0.34981447
0.35190575
0.35266069
0.35108149
0.34986756
0.34876032
0.33732208
0.33936874
0.34235538
0.34323375
0.34109994
0.33955905
0.33756451
0.31798361
0.32094824
0.32547743
0.32664524
0.32371055
0.321577
0.31837181
0.2868461
0.29005091
0.29659718
0.29818419
0.29416386
0.29183887
0.28744279
0.23889622
0.24091666
0.2492584
0.25109811
0.24603731
0.24459744
0.23951727
0.16863694
0.16609618
0.17322511
0.17443893
0.17037441
0.17374429
0.16960162
0.074780772
0.062078622
0.062251681
0.06132763
0.062463038
0.076613012
0.076128588
-0.033664613
-0.059086017
-0.072325311
-0.076759396
-0.065724261
-0.03710272
-0.031688736
-0.13390288
-0.16760565
-0.19091238
-0.19704438
-0.17986945
-0.14243217
-0.13150191
-0.19981781
-0.22957914
-0.25234068
-0.25750278
-0.24188503
-0.21050962
-0.19810727
-0.22117793
-0.23750295
-0.25120472
-0.253803
-0.24546923
-0.22961647
-0.22046287
-0.20826684
-0.21078616
-0.21485214
-0.21526139
-0.21364421
-0.21231435
-0.2082364
-0.17756846
-0.17150106
-0.16984782
-0.16922374
-0.17113238
-0.17827833
-0.17812858
-0.14136691
-0.13185903
-0.12806232
-0.12722338
-0.13015897
-0.14018605
-0.14205712
-0.10628358
-0.096722901
-0.092772172
-0.092057352
-0.094836965
-0.10452383
-0.10698514
-0.076243207
-0.068130799
-0.064843663
-0.064301605
-0.066584388
-0.07465403
-0.077045612
-0.052998358
-0.046394093
-0.043873048
-0.043473141
-0.045256971
-0.051647878
-0.053844139
-0.035574044
-0.030285421
-0.028380472
-0.028074209
-0.029424786
-0.034433243
-0.036329446
-0.021802968
-0.017909232
-0.016529682
-0.0163114
-0.017253734
-0.021072581
-0.022330788
-0.010144515
-0.0078580673
-0.0071159165
-0.0069823535
-0.0075218035
-0.010148555
-0.010423113
0.35686914
0.35967243
0.36340577
0.36644237
0.3675177
0.36618975
0.36311081
0.35956423
0.35716609
0.35460176
0.35818134
0.36293855
0.36661173
0.3675823
0.36531313
0.36098059
0.35642919
0.35465993
0.34895588
0.35265535
0.35882061
0.36382218
0.36513445
0.36185862
0.35595483
0.35044524
0.34876936
0.33805597
0.34325462
0.35207078
0.35929339
0.36115057
0.35637321
0.34793984
0.34019581
0.33751923
0.31898325
0.32651356
0.33971543
0.3505737
0.35331968
0.34626879
0.33370852
0.32219837
0.31822917
0.28811104
0.29756382
0.31644223
0.33261088
0.3368229
0.32618919
0.3078789
0.29170582
0.28726088
0.24005433
0.24945139
0.27302478
0.29497104
0.30073054
0.28611543
0.26197378
0.24253919
0.23913972
0.16979386
0.17203369
0.1909707
0.20482539
0.20798179
0.20027786
0.18271851
0.16727646
0.16899615
0.075124759
0.059294914
0.049286938
0.031287364
0.026161475
0.040733885
0.057298451
0.062633474
0.075626578
-0.034980538
-0.078038547
-0.13249335
-0.18982246
-0.20410432
-0.16424989
-0.10135647
-0.060159627
-0.032250795
-0.13652902
-0.19876365
-0.28139433
-0.35756976
-0.37629979
-0.32485171
-0.23698422
-0.17021384
-0.13187107
-0.20310817
-0.25928206
-0.33136387
-0.39149761
-0.40624703
-0.36683163
-0.29466087
-0.2330702
-0.19793174
-0.22380807
-0.25532706
-0.29403285
-0.32242567
-0.3297727
-0.31147672
-0.27586677
-0.24079003
-0.22012254
-0.2095226
-0.21608381
-0.22655342
-0.23329679
-0.23543799
-0.23124243
-0.22270458
-0.2129052
-0.20796743
-0.17795978
-0.16918621
-0.16479551
-0.16180768
-0.16149322
-0.16356092
-0.16783418
-0.17241864
-0.1778621
-0.14119257
-0.12655463
-0.11678158
-0.1106067
-0.10946036
-0.1135416
-0.1219779
-0.13201532
-0.14205995
-0.1059072
-0.091084864
-0.081015044
-0.074752383
-0.073526663
-0.077618809
-0.086115739
-0.096531841
-0.10702098
-0.075765399
-0.063241274
-0.054961709
-0.049814055
-0.048799793
-0.052171315
-0.059158472
-0.067785299
-0.076772634
-0.052455719
-0.042457782
-0.036212291
-0.032307623
-0.031538763
-0.034113408
-0.039415781
-0.045967845
-0.053283746
-0.035175489
-0.027222926
-0.022602827
-0.019699559
-0.019122908
-0.021035198
-0.024961117
-0.029865797
-0.035792821
-0.021701629
-0.015717616
-0.012392757
-0.010227007
-0.0097873704
-0.011196325
-0.014053222
-0.01757372
-0.021959952
-0.010331163
-0.0068128852
-0.0047930031
-0.0033124445
-0.0029997605
-0.0039509942
-0.0057902248
-0.0077847891
-0.010055791
0.35707201
0.35971929
0.36544689
0.37182128
0.37674653
0.37839176
0.37611906
0.37089768
0.3646732
0.35944696
0.36000085
0.35419302
0.35812887
0.36546661
0.37348862
0.37950679
0.38099443
0.37724661
0.37001673
0.36216117
0.35608491
0.3549039
0.34833938
0.35252101
0.36207924
0.3733075
0.38206281
0.38423456
0.37861227
0.36814598
0.35743291
0.35003577
0.34903198
0.33704624
0.34309435
0.35675165
0.37343714
0.38675837
0.39002394
0.38141596
0.36564364
0.35001273
0.33951568
0.33775573
0.31778879
0.32636658
0.34682124
0.37202289
0.39085257
0.39535011
0.38346529
0.36041719
0.33669481
0.32101088
0.31874238
0.28657734
0.29736185
0.32674909
0.36479904
0.39893588
0.40762317
0.38434013
0.34656163
0.31199515
0.29009208
0.28812637
0.23854784
0.24924939
0.28606832
0.33770246
0.3803707
0.3900648
0.36348867
0.31238747
0.26693156
0.24073462
0.24016556
0.16842033
0.17203826
0.19964161
0.22256253
0.23023528
0.23246844
0.22876574
0.21503738
0.18658293
0.16585259
0.17029805
0.074587683
0.059154694
0.037992035
-0.021393622
-0.062314141
-0.066500596
-0.046242875
0.011623169
0.054973099
0.062269632
0.076410645
-0.033758881
-0.078242145
-0.17248037
-0.30897057
-0.39052552
-0.40220928
-0.35814851
-0.24269067
-0.11376764
-0.057789079
-0.031778407
-0.13394188
-0.19894573
-0.33406973
-0.49897629
-0.61541746
-0.63902303
-0.56571187
-0.4190926
-0.25594226
-0.16500278
-0.1319738
-0.19969559
-0.2594964
-0.37216851
-0.49876364
-0.5992168
-0.61921088
-0.55687912
-0.43760572
-0.31093158
-0.22743967
-0.19868556
-0.22109676
-0.25553949
-0.31401561
-0.37164988
-0.41487442
-0.42699305
-0.397538
-0.34494807
-0.2844108
-0.23673489
-0.22091596
-0.20821464
-0.21623129
-0.23149434
-0.24450792
-0.25445077
-0.2575235
-0.25113507
-0.23921076
-0.22458829
-0.21109466
-0.20880836
-0.17777794
-0.16935868
-0.16233705
-0.15612515
-0.15282153
-0.15258574
-0.15476353
-0.15960426
-0.16632683
-0.17228917
-0.17836697
-0.14158882
-0.12673687
-0.1117267
-0.099512398
-0.092459894
-0.091230847
-0.09576147
-0.10560005
-0.11947869
-0.13276715
-0.14202353
-0.106329
-0.091189583
-0.075861336
-0.063670655
-0.056616432
-0.055302566
-0.059792579
-0.069621676
-0.083712636
-0.097520561
-0.10686259
-0.076237612
-0.063276775
-0.050676853
-0.040631475
-0.034761946
-0.033640059
-0.037382812
-0.045537312
-0.057173942
-0.068711004
-0.077114575
-0.053052562
-0.042465788
-0.032917947
-0.025192658
-0.020618557
-0.019729229
-0.022652999
-0.028979227
-0.037875018
-0.04674622
-0.054100173
-0.035678064
-0.02723455
-0.020145827
-0.014321782
-0.010803065
-0.010110892
-0.012352351
-0.017174765
-0.023801488
-0.030482787
-0.036505761
-0.021904292
-0.015734048
-0.010591186
-0.0062249504
-0.0035605542
-0.0030314498
-0.0047116028
-0.0083255247
-0.01322902
-0.018021537
-0.022399056
-0.010171256
-0.006824855
-0.0036152815
-0.00051639457
0.0014852096
0.0019034435
0.00064464869
-0.0019874439
-0.0053147296
-0.0079452008
-0.010564508
0.35796368
0.36355024
0.37193546
0.38095525
0.38789345
0.39018989
0.38692313
0.37945123
0.3704973
0.36272778
0.35823484
0.355609
0.36287256
0.37346994
0.38491942
0.39354368
0.3956581
0.39019083
0.37982831
0.36852356
0.35944721
0.35558026
0.34956286
0.35859543
0.37319147
0.38998555
0.40326779
0.4065958
0.39790574
0.38218912
0.36597055
0.3539697
0.34993194
0.33895897
0.35174971
0.37326753
0.39909139
0.41803781
0.42241359
0.41076745
0.38698049
0.36241508
0.34506406
0.33938324
0.32046227
0.33932005
0.37181317
0.40736892
0.43637452
0.44413682
0.42392313
0.39136889
0.35546036
0.32930092
0.32117513
0.28949779
0.31600763
0.36453702
0.43385509
0.49725329
0.51160584
0.47055034
0.39799241
0.33935689
0.30156912
0.29148451
0.2403755
0.27264285
0.33743022
0.41829798
0.47249884
0.48462931
0.45127004
0.38087399
0.30280598
0.25434109
0.24401901
0.16578474
0.19073582
0.22236817
0.23514235
0.26581672
0.27971202
0.24908465
0.23120911
0.20975166
0.17649091
0.17345537
0.061698421
0.048881086
-0.021719923
-0.086307625
-0.040274436
-0.0061237551
-0.07347696
-0.063751046
0.023365422
0.05977309
0.077114571
-0.059448785
-0.13317709
-0.30949864
-0.43898585
-0.38640412
-0.33265955
-0.43149001
-0.39069964
-0.21398136
-0.083674729
-0.035496306
-0.1678165
-0.28210379
-0.49960047
-0.70130802
-0.8060005
-0.7692662
-0.75003302
-0.60927224
-0.38569464
-0.20806089
-0.13963489
-0.22956301
-0.33190216
-0.4993531
-0.68898073
-0.8407321
-0.94274588
-0.81830535
-0.59208383
-0.41212449
-0.26784701
-0.20742426
-0.23744632
-0.29433092
-0.3719639
-0.45903582
-0.55812093
-0.59139369
-0.5088717
-0.41410921
-0.33281115
-0.2602467
-0.22758348
-0.21076367
-0.2267084
-0.24463342
-0.26445184
-0.28792501
-0.2957987
-0.27715571
-0.2548066
-0.23612978
-0.21775415
-0.21178446
-0.17167653
-0.16494686
-0.15613037
-0.15034382
-0.14940821
-0.15000304
-0.15006927
-0.15325811
-0.1607586
-0.16901761
-0.17875261
-0.13210962
-0.11691795
-0.099477396
-0.086390169
-0.079333342
-0.078200203
-0.082612489
-0.0927673
-0.10819428
-0.12560001
-0.1410258
-0.096863203
-0.081054106
-0.063601015
-0.050501249
-0.043082103
-0.041732377
-0.046425686
-0.056834364
-0.072292319
-0.090021761
-0.10548592
-0.068139929
-0.0549264
-0.04055762
-0.029611425
-0.023311071
-0.022147491
-0.026109516
-0.034915226
-0.047781683
-0.062465803
-0.07564567
-0.046372268
-0.036166479
-0.025134559
-0.016555899
-0.011537813
-0.010603293
-0.013759887
-0.020720486
-0.030735495
-0.042002376
-0.052551324
-0.030289736
-0.022578633
-0.014281746
-0.0076750573
-0.0038160139
-0.0030893711
-0.0055144425
-0.01086145
-0.018500892
-0.026916787
-0.035106324
-0.01793338
-0.012386051
-0.0061952906
-0.0011940408
0.0017627131
0.0023322477
0.00048970103
-0.0035820835
-0.0093171592
-0.015432779
-0.021479009
-0.0078896022
-0.0047944225
-0.00050076305
0.0033054021
0.0057164361
0.0062148088
0.0047041137
0.0015000167
-0.0026738813
-0.0066080064
-0.010411024
0.36108788
0.35929282
0.36657523
0.37691273
0.3879432
0.39645264
0.39927676
0.39524086
0.38604465
0.375064
0.36542847
0.35921016
0.35456165
0.35728907
0.36648625
0.37943951
0.39350774
0.40428635
0.40693685
0.40001247
0.38714073
0.37330288
0.36211158
0.35655494
0.34865235
0.35158185
0.36350038
0.38184645
0.40317935
0.42050123
0.42476107
0.41344304
0.39309938
0.37267356
0.35728982
0.35092309
0.33748014
0.34187714
0.35884235
0.38645105
0.41795099
0.4395312
0.44492482
0.43123334
0.40365524
0.37238108
0.34977645
0.34105418
0.31847615
0.3248169
0.34996829
0.39050961
0.43620306
0.48219933
0.49484149
0.4614649
0.41408594
0.37035735
0.33644929
0.32389913
0.2877171
0.29569021
0.33185449
0.39825664
0.49669933
0.5768152
0.5950841
0.54373369
0.4464414
0.36263204
0.31207481
0.29519257
0.24036719
0.24832006
0.29409201
0.3794875
0.47206367
0.54446566
0.5649579
0.51287894
0.43022695
0.33434032
0.26769978
0.2487889
0.17044463
0.17259946
0.20407337
0.22954346
0.26536877
0.37998297
0.42494393
0.31787907
0.24112189
0.22163323
0.18754031
0.17765017
0.075614161
0.061609517
0.030429851
-0.063076327
-0.039343649
0.2334869
0.34819373
0.076012831
-0.080799762
-0.012807725
0.054343734
0.077643408
-0.033977813
-0.07296585
-0.19091303
-0.39149157
-0.38144782
0.11762794
0.33855778
-0.19226432
-0.43844289
-0.29468856
-0.11385356
-0.041790327
-0.13533828
-0.19140788
-0.35844762
-0.61669567
-0.80119065
-0.412153
0.32314908
-0.37341038
-0.73573079
-0.48536297
-0.2543652
-0.15175803
-0.20169639
-0.25246817
-0.39186447
-0.59932706
-0.84123036
-1.0382249
-1.2244899
-1.1909119
-0.72648721
-0.48970196
-0.30858251
-0.22031387
-0.22302884
-0.25115654
-0.32243138
-0.41499572
-0.55708326
-0.83806666
-0.9313411
-0.68180818
-0.4738725
-0.36721143
-0.2822869
-0.23616604
-0.2096162
-0.21475322
-0.2331228
-0.2542254
-0.28752639
-0.34372019
-0.36122211
-0.31466532
-0.26887393
-0.24372323
-0.22397065
-0.21480436
-0.17844596
-0.16987315
-0.16163893
-0.15253697
-0.14915837
-0.1537415
-0.15567238
-0.15132337
-0.15038075
-0.15717128
-0.16684409
-0.17799414
-0.1414733
-0.12817718
-0.11046631
-0.092179914
-0.079110824
-0.072789091
-0.071905161
-0.075551804
-0.085336324
-0.10125013
-0.12027927
-0.13865287
-0.10591809
-0.092820509
-0.074568536
-0.056362904
-0.042907601
-0.035373518
-0.034047906
-0.038681502
-0.049342715
-0.065383565
-0.084491894
-0.10267309
-0.076309322
-0.064796777
-0.049615631
-0.034551236
-0.023172345
-0.016655623
-0.015438859
-0.019503676
-0.028621439
-0.042091858
-0.057928973
-0.072986289
-0.053570144
-0.043798158
-0.03214681
-0.020457946
-0.011435761
-0.0062779108
-0.0052897605
-0.0085029507
-0.01576577
-0.026362398
-0.038580865
-0.050267328
-0.036067883
-0.028343577
-0.019594851
-0.010688354
-0.0037427297
0.00023852568
0.0010031436
-0.0014650959
-0.0070566411
-0.015202093
-0.024384227
-0.033236459
-0.022054445
-0.016541721
-0.010166339
-0.0034838761
0.0018202267
0.0049028451
0.005501788
0.0035834164
-0.00070092222
-0.0068509594
-0.013595728
-0.020063452
-0.010344728
-0.0071691965
-0.0032816424
0.0015184689
0.005748512
0.0083925812
0.0089398903
0.0072823782
0.0037496379
-0.00090864965
-0.0054428133
-0.0094408945
0.35679042
0.35976348
0.36749383
0.37844636
0.39013698
0.39911766
0.40211003
0.39783749
0.38810612
0.37651706
0.36632338
0.3596521
0.35447391
0.3578717
0.36732285
0.38079364
0.3954773
0.40678326
0.40956303
0.40228302
0.38880864
0.37440365
0.36283168
0.35614263
0.34871722
0.35229336
0.36472964
0.38390427
0.4063718
0.42463969
0.42907145
0.41719673
0.39569709
0.37426704
0.35825141
0.34975722
0.33767285
0.34275842
0.36063034
0.38960893
0.4223192
0.44500461
0.45087154
0.43614861
0.40754068
0.37479622
0.35107604
0.33902284
0.31872988
0.32589814
0.35256483
0.39491072
0.44374671
0.49445444
0.50865897
0.47146962
0.41971259
0.37387798
0.33831706
0.32045752
0.28785071
0.29696289
0.3357021
0.40638808
0.51031345
0.59432048
0.61406649
0.55950677
0.45780904
0.36839735
0.31474546
0.28959379
0.2406597
0.24969274
0.29923342
0.38849313
0.48355743
0.56426766
0.58842883
0.52824154
0.44042412
0.34178958
0.27134045
0.24068328
0.17059
0.17334232
0.20650301
0.23097474
0.27823512
0.42424485
0.48004
0.34590489
0.2458595
0.22385653
0.19060364
0.16650181
0.075547164
0.060236141
0.024890882
-0.068659199
-0.0098945391
0.34893637
0.48804925
0.14777902
-0.073520592
-0.020917133
0.052576452
0.063680367
-0.0344922
-0.077726388
-0.20520754
-0.4056423
-0.33958754
0.3367298
0.56641654
-0.055718875
-0.43304468
-0.3121212
-0.12241441
-0.055778397
-0.1365489
-0.19764098
-0.37678061
-0.64213421
-0.76756607
0.32563611
1.1746729
0.23811803
-0.75319985
-0.50881537
-0.26764636
-0.16212765
-0.20292684
-0.25737538
-0.40558716
-0.6148254
-0.93538375
-1.2336181
-0.42194987
-1.2959533
-0.85454154
-0.50810529
-0.31994657
-0.22456538
-0.22371306
-0.2532523
-0.32869668
-0.42558598
-0.58934565
-0.93031887
-1.0028396
-0.74617188
-0.49063249
-0.37560068
-0.28855609
-0.23460714
-0.20985265
-0.21464788
-0.2344974
-0.25632747
-0.29437255
-0.36039987
-0.37694638
-0.32676596
-0.27297103
-0.24567022
-0.22586496
-0.210209
-0.17842064
-0.16868599
-0.16077008
-0.15163535
-0.1490711
-0.15519494
-0.15748387
-0.15213114
-0.15004111
-0.15651369
-0.16638793
-0.1725757
-0.14134983
-0.12683487
-0.10890578
-0.090529112
-0.077580456
-0.071578573
-0.070563181
-0.074096975
-0.083841802
-0.099816641
-0.11907504
-0.13368838
-0.10577023
-0.091733208
-0.073066924
-0.054772473
-0.041291386
-0.033798016
-0.032465439
-0.037014577
-0.047803619
-0.063933392
-0.083257
-0.098680404
-0.076042225
-0.063996648
-0.048415627
-0.033243812
-0.021826333
-0.015258141
-0.014063325
-0.0180788
-0.027323516
-0.040888386
-0.056911919
-0.069931788
-0.053128613
-0.043199792
-0.031244931
-0.019437137
-0.010366751
-0.0051597019
-0.0041905392
-0.0073878672
-0.014734605
-0.025426505
-0.037810196
-0.047885877
-0.035631932
-0.027886035
-0.018925224
-0.0099077604
-0.0029189264
0.0010970705
0.0018476444
-0.00061170854
-0.0062660493
-0.014480984
-0.02381773
-0.031376733
-0.021738108
-0.016206151
-0.0096682582
-0.0029014929
0.0024492909
0.0055612662
0.006151803
0.0042439417
-9.0128528e-05
-0.0063078437
-0.013187811
-0.018640398
-0.0099929048
-0.0069151562
-0.0029395445
0.0019642778
0.0062736717
0.0089628704
0.0095202044
0.007848082
0.004237595
-0.00052149689
-0.005203747
-0.0080418814
0.35887163
0.36590867
0.37588298
0.38653899
0.39477764
0.39751993
0.3936364
0.38477097
0.3741865
0.36491998
0.35890455
0.35647873
0.3648956
0.3768592
0.38980294
0.39962571
0.40202625
0.39574413
0.38397971
0.37125099
0.36101154
0.35636387
0.35068591
0.36140941
0.37821057
0.39759548
0.41318808
0.41705861
0.4067811
0.38846949
0.36981029
0.35587648
0.35065938
0.34062506
0.35582133
0.38092624
0.41052813
0.43129233
0.43621179
0.42335513
0.39681725
0.36814349
0.3477166
0.34064646
0.3228446
0.34537336
0.38282478
0.42355792
0.46100909
0.47117538
0.44444937
0.40463551
0.36409682
0.33328504
0.32300451
0.29269933
0.32479516
0.3829394
0.46872148
0.54237502
0.55869022
0.51186409
0.42434679
0.35227643
0.30734584
0.29356485
0.24434198
0.28423668
0.36129122
0.44968168
0.51184738
0.52737129
0.4858825
0.40968957
0.32036841
0.26165378
0.24695872
0.16901482
0.19843148
0.22688174
0.24732403
0.31678681
0.3445325
0.27861816
0.23519212
0.21752484
0.18284776
0.17564882
0.061254959
0.039338712
-0.04830107
-0.076282483
0.076695552
0.14432331
-0.014884312
-0.081224911
0.0027325432
0.057407256
0.076177289
-0.066885591
-0.16518088
-0.36112376
-0.43630944
-0.18619351
-0.066051288
-0.34550125
-0.42912597
-0.26222883
-0.10013596
-0.041254316
-0.18076907
-0.32492561
-0.56800343
-0.75903502
-0.37598575
0.23879969
-0.37620869
-0.68262038
-0.44453351
-0.23404778
-0.14936934
-0.2418707
-0.36565217
-0.55533371
-0.8114996
-1.197322
-1.3328207
-1.1721657
-0.66444832
-0.45758277
-0.29110143
-0.21719726
-0.24481453
-0.31007479
-0.39569185
-0.50683905
-0.68028118
-0.7449911
-0.58832267
-0.44739722
-0.35327221
-0.2731142
-0.2339277
-0.21279383
-0.22999055
-0.24951905
-0.27554425
-0.31355136
-0.32601585
-0.29439815
-0.26210917
-0.24074096
-0.22152807
-0.21387154
-0.1703101
-0.1625839
-0.15357446
-0.14891106
-0.1505598
-0.15167533
-0.14957652
-0.15116528
-0.15862791
-0.16793285
-0.17768183
-0.12948666
-0.11278379
-0.094888576
-0.081793033
-0.075017515
-0.073795724
-0.077928955
-0.088108656
-0.1039965
-0.12264392
-0.13855318
-0.09428724
-0.077028762
-0.059151237
-0.045831404
-0.038292683
-0.036804304
-0.041546057
-0.052208095
-0.068098644
-0.086860289
-0.10265576
-0.066127516
-0.051706839
-0.036907138
-0.025672833
-0.019217932
-0.017919353
-0.02199016
-0.031054878
-0.044347335
-0.059895543
-0.073034361
-0.044893072
-0.03376474
-0.022307225
-0.013430095
-0.0082852063
-0.0072677438
-0.010481141
-0.017687912
-0.028111964
-0.040109404
-0.050356278
-0.02917078
-0.020799004
-0.01210878
-0.0052690399
-0.001307432
-0.00052391117
-0.0029960122
-0.0085220811
-0.016515953
-0.025522259
-0.033302184
-0.017098868
-0.011054541
-0.004559986
0.00063950173
0.0036929711
0.0043039306
0.0024065054
-0.001809613
-0.0078117384
-0.014398713
-0.020036294
-0.0074336173
-0.0038863817
0.00072103774
0.0047754446
0.0073363864
0.0078700377
0.006276106
0.0028659834
-0.0015978442
-0.0059484018
-0.0093249515
0.35748058
0.36251135
0.37028456
0.37870334
0.38517385
0.38730862
0.38426112
0.37734908
0.36906828
0.3619173
0.35778629
0.35497507
0.36045519
0.36947111
0.37924895
0.38656887
0.3883429
0.38372911
0.37492444
0.36532586
0.35765871
0.35525658
0.34943566
0.35553706
0.36775692
0.38187241
0.39286661
0.39557132
0.3884582
0.37531824
0.36171006
0.35182016
0.34941258
0.33899397
0.34738589
0.3651678
0.38662912
0.40349459
0.40747895
0.39680783
0.3765347
0.35626268
0.34214626
0.33865982
0.32067057
0.33269352
0.35953117
0.39083518
0.41376444
0.41950313
0.40454039
0.37667197
0.34608616
0.3250093
0.31973847
0.29032914
0.3062679
0.34510813
0.39635561
0.4447636
0.45652938
0.42380594
0.3706884
0.32528847
0.29544957
0.28932073
0.24297322
0.26008964
0.31033032
0.37880749
0.42862181
0.43924829
0.40903902
0.34543008
0.2837447
0.24724057
0.24163847
0.17245743
0.18109885
0.21324522
0.22973615
0.23971002
0.24465168
0.23467256
0.22600012
0.19891936
0.17141043
0.17114224
0.075509452
0.056094375
0.010301429
-0.065464886
-0.082011536
-0.076063206
-0.08212978
-0.030456829
0.042308251
0.062264756
0.075762881
-0.038362615
-0.10234083
-0.24392058
-0.39277811
-0.43841891
-0.43711045
-0.43102245
-0.32730444
-0.16222063
-0.068658696
-0.034505681
-0.14366573
-0.23743948
-0.41966826
-0.61068033
-0.73885227
-0.75324862
-0.68352961
-0.52099047
-0.32185646
-0.18518216
-0.1365648
-0.21084767
-0.29418849
-0.43702634
-0.59211397
-0.72922436
-0.85204303
-0.66223141
-0.51579549
-0.36333069
-0.24767354
-0.20352714
-0.22906728
-0.27486446
-0.34387002
-0.41335824
-0.47313524
-0.48952379
-0.44672752
-0.37969274
-0.31001265
-0.24962684
-0.22478416
-0.21138279
-0.22160782
-0.23810459
-0.25391213
-0.26816215
-0.27209851
-0.26148204
-0.24650769
-0.23083082
-0.21552688
-0.21065729
-0.17722111
-0.16687811
-0.15868653
-0.15245771
-0.14979238
-0.14938378
-0.15075058
-0.15546514
-0.1632397
-0.17116569
-0.17859167
-0.13917479
-0.12120891
-0.10484316
-0.092103512
-0.084845572
-0.083398866
-0.087847114
-0.098088064
-0.11313775
-0.12921737
-0.14132882
-0.10357929
-0.08550734
-0.069028643
-0.056313908
-0.048948116
-0.047476766
-0.052035356
-0.062274272
-0.077274871
-0.093661686
-0.10584523
-0.073799393
-0.058681271
-0.045081436
-0.034514073
-0.028310542
-0.027072021
-0.030924555
-0.039510755
-0.051936554
-0.065550724
-0.076054642
-0.050905451
-0.039050885
-0.028634232
-0.020405768
-0.015517891
-0.014540048
-0.01758757
-0.024326617
-0.033945774
-0.044421856
-0.053020418
-0.033808816
-0.024700411
-0.016917671
-0.010616287
-0.0068676294
-0.0061206147
-0.0084472487
-0.013623109
-0.020878545
-0.028722074
-0.035519716
-0.020541475
-0.013884285
-0.0081720978
-0.0034294756
-0.00056594514
1.4126398e-05
-0.0017541619
-0.0056484936
-0.011048109
-0.016682466
-0.021693654
-0.009677227
-0.0057012802
-0.0019049578
0.0015788814
0.0038154531
0.0042794835
0.0028884924
-5.5099845e-05
-0.0038440765
-0.0072921639
-0.010331422
0.35590675
0.35870486
0.36375898
0.36945692
0.37390577
0.37536144
0.37324358
0.3685879
0.36315987
0.3586764
0.35410116
0.35586906
0.3615161
0.36783328
0.37260989
0.37378494
0.37079723
0.36510758
0.35903168
0.35605066
0.34822524
0.3500579
0.35704626
0.3656661
0.37246751
0.37418546
0.36982568
0.36173114
0.35352818
0.35034645
0.33685557
0.33966159
0.3495218
0.36207268
0.37218986
0.37475308
0.36820395
0.35631925
0.34454466
0.34032936
0.31743194
0.32119726
0.33576114
0.35469369
0.36980374
0.3734813
0.36385202
0.34602177
0.32843102
0.32243978
0.28606112
0.29017075
0.31052377
0.33803477
0.36141127
0.36737384
0.35160588
0.32494349
0.29993127
0.29226819
0.23805949
0.24085873
0.26522604
0.301099
0.33271822
0.34031665
0.31925592
0.2831609
0.2519617
0.24454787
0.16832436
0.1660673
0.18523914
0.20862756
0.22067685
0.22276054
0.21663047
0.19853899
0.17447291
0.17288538
0.074797667
0.061892044
0.054184298
0.022589947
-0.01365754
-0.021719919
0.0022992854
0.042148969
0.060025955
0.073911712
-0.033099553
-0.061110742
-0.11463108
-0.21510858
-0.29581688
-0.31285371
-0.26229086
-0.16213701
-0.080990564
-0.042208275
-0.13262424
-0.17138139
-0.25687953
-0.38684109
-0.48649597
-0.50889192
-0.44397256
-0.32156497
-0.20471831
-0.14932104
-0.19844894
-0.23373779
-0.31126191
-0.41271478
-0.49006453
-0.50754529
-0.45650194
-0.36290438
-0.26573803
-0.21666041
-0.22013016
-0.2406298
-0.28424132
-0.33279596
-0.36720615
-0.37478181
-0.35226016
-0.30957105
-0.25981305
-0.23312977
-0.20765632
-0.212297
-0.22414711
-0.23577125
-0.24333396
-0.24485276
-0.23986173
-0.2303788
-0.21779879
-0.2124896
-0.17740882
-0.17170178
-0.16577003
-0.16025107
-0.15669329
-0.15584233
-0.15797031
-0.16286129
-0.16897146
-0.17589744
-0.14131272
-0.13135073
-0.11892155
-0.10769953
-0.10083316
-0.099339916
-0.103562
-0.11288111
-0.12547299
-0.13664684
-0.10629167
-0.09600118
-0.083251775
-0.071879722
-0.06504889
-0.063602061
-0.067838296
-0.077135071
-0.089955828
-0.10105599
-0.076484625
-0.06740078
-0.056829119
-0.04746188
-0.041824536
-0.040630559
-0.04416045
-0.051851083
-0.062455565
-0.071586693
-0.053459663
-0.045679932
-0.037610375
-0.030475151
-0.026135123
-0.025203044
-0.027944538
-0.033868237
-0.041948526
-0.048873889
-0.036083063
-0.029644319
-0.023586349
-0.018279554
-0.015007837
-0.014293237
-0.016372165
-0.020808351
-0.026789518
-0.031959822
-0.022212846
-0.017415833
-0.013091357
-0.0091653953
-0.0067040268
-0.0061749164
-0.0077141922
-0.011000365
-0.01530552
-0.018981185
-0.010403362
-0.0076762797
-0.0052270604
-0.0025869118
-0.00083555354
-0.00046080936
-0.0015575567
-0.0038260618
-0.0065324276
-0.0083404628
0.35630482
0.35844979
0.36156381
0.36414539
0.36500222
0.36374547
0.36113925
0.35833219
0.35674655
0.3540753
0.35545332
0.35873329
0.36137266
0.36212616
0.36040491
0.35728617
0.35590917
0.35458288
0.34822556
0.34960201
0.35361617
0.3570448
0.35811943
0.35580218
0.35177922
0.35036299
0.34886872
0.33682669
0.33895223
0.34464632
0.34954211
0.35102178
0.34775796
0.34212467
0.34031086
0.33756464
0.3173256
0.32012189
0.32852911
0.33584283
0.33792615
0.33307559
0.32487689
0.32222428
0.31813954
0.28599815
0.28880171
0.30041063
0.31101443
0.31379802
0.30665946
0.29505028
0.29225789
0.28682426
0.23786369
0.23939835
0.2531545
0.26641541
0.26992601
0.26051247
0.24651085
0.24445972
0.23849336
0.16806463
0.16502643
0.17568439
0.18666395
0.18955548
0.18191374
0.1708557
0.17275061
0.16815543
0.074636404
0.061979164
0.059424788
0.054002866
0.052138153
0.056945983
0.062036595
0.073940149
0.074943977
-0.033416977
-0.058361866
-0.084252027
-0.11442774
-0.12275453
-0.10035948
-0.068876634
-0.042284138
-0.032652336
-0.13290454
-0.16608746
-0.20930121
-0.25536564
-0.26795343
-0.23413568
-0.1854706
-0.14965196
-0.13179287
-0.19851604
-0.22826288
-0.26899079
-0.30935668
-0.31997104
-0.29087571
-0.24779429
-0.21711105
-0.19755643
-0.22024392
-0.23708676
-0.26090637
-0.28255386
-0.28816264
-0.27249812
-0.24932096
-0.23339777
-0.21964526
-0.207674
-0.21101526
-0.2179177
-0.22376663
-0.22516143
-0.22059485
-0.21477195
-0.2124741
-0.20736505
-0.17727052
-0.17187449
-0.16879013
-0.16638351
-0.1656179
-0.16699591
-0.17031586
-0.17573211
-0.17751133
-0.14135811
-0.13226752
-0.12528463
-0.11986922
-0.11848842
-0.12197295
-0.12857145
-0.13651933
-0.14171564
-0.10640391
-0.097154975
-0.089809857
-0.084237996
-0.082909136
-0.08650084
-0.093291185
-0.10104584
-0.10713512
-0.076358763
-0.068507845
-0.062367425
-0.057782221
-0.056688255
-0.059679991
-0.065332488
-0.071654508
-0.077259535
-0.053021916
-0.046610342
-0.041926695
-0.038449593
-0.037600815
-0.039895203
-0.044220609
-0.048957862
-0.0538275
-0.035587212
-0.030346739
-0.026820803
-0.024243384
-0.023608197
-0.025302619
-0.028526166
-0.032020244
-0.036246697
-0.021807544
-0.017917096
-0.015350962
-0.013482655
-0.01302139
-0.014229027
-0.016537817
-0.019067056
-0.022565829
-0.0099699473
-0.0078813828
-0.006567969
-0.0053811456
-0.005104162
-0.0058621937
-0.0072032709
-0.0084789173
-0.011074424
0.35917284
0.35719955
0.35802262
0.35840319
0.35777015
0.35700689
0.35427034
0.35489591
0.35580828
0.35543096
0.35567462
0.35480601
0.34841864
0.3494661
0.35057158
0.34952085
0.35041026
0.34918674
0.33713371
0.33887644
0.34071576
0.33881006
0.34048616
0.33840578
0.3178993
0.32043268
0.3232172
0.32001799
0.32268447
0.31960458
0.28700663
0.29046431
0.2942176
0.28874045
0.29312919
0.28901993
0.23927932
0.24327854
0.24794891
0.2396467
0.2460655
0.24105963
0.16948444
0.17294483
0.17714956
0.1658873
0.17505627
0.1706842
0.075682628
0.076677024
0.077326352
0.063348766
0.075884101
0.075635933
-0.032509532
-0.036072342
-0.042195524
-0.056307867
-0.041886443
-0.035272469
-0.13307619
-0.14091065
-0.15285204
-0.16303592
-0.15047768
-0.13749281
-0.19947198
-0.20849076
-0.221398
-0.22537889
-0.21813764
-0.20430918
-0.22140801
-0.22809973
-0.23665301
-0.23484425
-0.23403153
-0.22473193
-0.20856196
-0.21175393
-0.21462231
-0.20975679
-0.21313126
-0.20969522
-0.17766593
-0.17813255
-0.17733681
-0.1718225
-0.17679108
-0.17765219
-0.14139397
-0.14042791
-0.13809366
-0.13310042
-0.13795382
-0.14071384
-0.10652075
-0.10514415
-0.10238739
-0.098409307
-0.10242234
-0.10550792
-0.0768725
-0.075477246
-0.072837925
-0.069822584
-0.072913541
-0.07571336
-0.053799883
-0.052380774
-0.050093628
-0.047764875
-0.050186581
-0.052553263
-0.036198046
-0.034936721
-0.033053955
-0.031230294
-0.033133156
-0.035056449
-0.022202365
-0.021371648
-0.01992746
-0.018531289
-0.019959768
-0.021375357
-0.010433312
-0.010396437
-0.0093997547
-0.0079994259
-0.0093150022
-0.010140833
0.35937273
0.35701645
0.35522994
0.35554401
0.35744134
0.35803539
0.35568883
0.35634046
0.35694177
0.35570643
0.35562023
0.35831967
0.35880062
0.35657862
0.35723664
0.36146684
0.35562866
0.35587777
0.3588351
0.35857022
0.35729006
0.3568179
0.35832953
0.3578822
0.35658084
0.35606229