/*--------------------------------*- C++ -*----------------------------------*\
  =========                 |
  \\      /  F ield         | OpenFOAM: The Open Source CFD Toolbox
   \\    /   O peration     | Website:  https://openfoam.org
    \\  /    A nd           | Version:  8
     \\/     M anipulation  |
\*---------------------------------------------------------------------------*/
FoamFile
{
    version     2.0;
    format      ascii;
    class       surfaceScalarField;
    location    "50";
    object      phi;
}
// * * * * * * * * * * * * * * * * * * * * * * * * * * * * * * * * * * * * * //

dimensions      [0 3 -1 0 0 0 0];

internalField   nonuniform List<scalar> 
215364
(
-3.3273673e-06
0.00099037204
-0.00013508566
-5.747581e-06
1.213432e-05
0.0020782971
0.00011821478
-0.0012139049
2.3388861e-07
-3.5404172e-06
0.0012172627
-0.0023869931
3.0754743e-08
1.7058365e-07
-1.0221064e-05
0.0023971602
-0.0012227977
-5.6961115e-07
0.0012251349
-1.7835162e-06
-0.0024095697
3.5571993e-07
-1.7173228e-07
0.0024156231
-6.1003696e-06
-0.0012350698
-1.0626415e-06
0.0012394885
-3.3568423e-06
-0.002433678
4.9143564e-07
-8.8744153e-08
0.0024435448
-1.0183314e-05
-0.0012570164
-1.8355956e-06
0.0012643543
-5.5318093e-06
-0.0024752957
6.4671479e-07
6.7969998e-08
0.0024909708
-1.6309433e-05
-0.0012920553
-2.8015563e-06
0.001303406
-8.5409814e-06
-0.00254184
8.2944808e-07
1.7475057e-07
0.0025653234
-2.474127e-05
-0.0013450839
-4.0532193e-06
0.0013616648
-1.2546184e-05
-0.0026429652
1.232797e-06
2.9501711e-07
0.0026770148
-3.5943637e-05
-0.0014199722
-5.4438217e-06
0.001442196
-1.692141e-05
-0.002786984
1.5792783e-06
3.980835e-07
0.0028323293
-4.8240702e-05
-0.0015161173
-6.819813e-06
0.001542438
-1.9687644e-05
-0.0029733406
2.017277e-06
5.3145068e-07
0.0030273928
-5.7360267e-05
-0.0016224551
-7.4697069e-06
0.0016482332
-1.8488953e-05
-0.003181949
2.3171745e-06
3.3836822e-07
0.0032352161
-5.6640649e-05
-0.0017176413
-6.9676761e-06
0.0017370212
-1.2536054e-05
-0.0033704166
2.5872046e-06
-3.8925292e-07
0.0034108387
-4.2838206e-05
-0.0017807219
-5.4762055e-06
0.0017901625
-4.0174395e-06
-0.0034960276
2.714251e-06
-1.4652613e-06
0.0035161671
-2.1254375e-05
-0.0018038865
-3.8848694e-06
0.001804231
3.5398425e-06
-0.0035424105
2.6377134e-06
-2.2461107e-06
0.0035441925
-1.8992211e-06
-0.0017957713
-2.7401354e-06
0.0017906168
7.9261638e-06
-0.0035266998
2.451796e-06
-2.6383084e-06
0.0035175145
9.662423e-06
-0.0017707586
-1.859702e-06
0.0017633005
9.340633e-06
-0.0034775065
2.3355048e-06
-2.8654998e-06
0.0034638555
1.4387586e-05
-0.0017397425
-1.2850935e-06
0.0017318509
9.1940504e-06
-0.0034163632
2.3656471e-06
-2.9474304e-06
0.0034019958
1.5086169e-05
-0.0017086548
-1.1172056e-06
0.0017012626
8.5246942e-06
-0.0033550905
2.5696787e-06
-2.9785825e-06
0.003341618
1.3982196e-05
-0.001680135
-1.3454864e-06
0.0016734086
8.0816085e-06
-0.0032983116
3.0158055e-06
-3.1916986e-06
0.0032860965
1.2478567e-05
-0.001653697
-2.0775983e-06
0.0016471614
8.6202603e-06
-0.003246045
3.7463086e-06
-3.7144729e-06
0.0032346694
1.1423725e-05
-0.001627273
-3.3306509e-06
0.0016205176
1.0098118e-05
-0.0031960203
4.9464537e-06
-4.7444213e-06
0.0031847948
1.1090061e-05
-0.0015999284
-4.7421571e-06
0.0015929622
1.1721486e-05
-0.0031457436
6.5951722e-06
-6.3172006e-06
0.0031338379
1.168036e-05
-0.0015675501
-6.901818e-06
0.001547744
2.6723584e-05
9.1039494e-06
-0.00308094
-9.3329705e-06
0.0030407494
4.045447e-05
-9.4711674e-06
-9.6703862e-05
2.5567498e-05
0.0033550748
1.3313943e-05
-2.0832277e-05
-1.6014223e-05
1.4134241e-05
0.0029646867
3.938464e-05
-2.9657707e-05
-9.7483789e-06
6.9763913e-06
0.0028591938
2.6451399e-05
-1.402882e-05
8.8814465e-08
-2.0946696e-06
0.0027946199
1.3137743e-05
-3.6419313e-05
9.8423903e-06
-1.1631855e-05
0.0028853354
3.2592866e-05
-1.5253499e-05
1.6067709e-05
-1.5888941e-05
0.003017182
3.6495727e-05
9.672277e-05
9.2052037e-05
0.0022788405
5.9166166e-05
-0.0033930526
6.7815808e-07
8.4971029e-07
-4.3935179e-07
-2.8442258e-07
0.0033928673
-3.6270258e-06
-0.011460556
-7.9575159e-06
3.5059092e-05
0.011359443
0.00011168209
-1.3681725e-05
1.0776271e-06
5.3930874e-06
-2.5507718e-05
-1.8462868e-06
3.5075001e-06
-1.6958492e-05
-0.011296709
-3.1452736e-05
1.7913445e-05
0.011258165
5.7874108e-05
-9.8156495e-06
9.8809166e-06
1.4293492e-05
3.0678954e-05
-0.01111597
9.6743688e-07
-1.8957265e-05
0.011085344
2.1735098e-05
-1.9727171e-05
-0.011438744
-3.6022792e-05
0.011371016
9.7873037e-05
3.3425882e-05
-1.7847636e-05
7.628377e-06
6.2003521e-06
-0.0028535304
-2.62824e-06
8.2640411e-06
-5.236236e-06
1.8976386e-05
0.0028349419
-0.0024353215
-5.1913446e-07
1.1136442e-06
-2.1424748e-06
0.0024371509
1.8517661e-06
-0.0034010283
1.9681995e-06
-3.2377881e-06
0.0034066636
-5.7280307e-06
1.0719146e-05
4.5009396e-06
-0.011322806
-1.5489492e-05
0.011329601
-5.4756227e-05
8.0871957e-06
1.2098305e-05
1.4973895e-05
6.1759118e-06
-3.3723049e-06
1.2950328e-05
1.0888604e-05
1.1166389e-05
-0.011233187
-5.9441291e-06
0.011240848
-7.8426531e-05
1.0248216e-05
2.2466395e-05
2.5022137e-05
7.2143944e-05
-0.011077265
2.0058457e-06
3.0359945e-06
0.011091811
-8.7840501e-05
9.4841563e-06
-0.011336184
1.311626e-05
0.011341783
-6.5465841e-05
-7.5247497e-06
1.0044608e-05
2.0099088e-05
1.8362341e-05
7.3389805e-06
-0.0028296676
-3.9027191e-06
3.7771038e-06
0.0028306469
-7.5198209e-06
-0.0024454588
-1.3446805e-06
6.9744222e-07
0.0024500597
-3.7322555e-06
3.6599933e-06
-0.0034321692
3.8440632e-06
-6.6784845e-06
0.0034437722
-1.2078349e-05
2.3078301e-05
1.1734475e-05
-0.011365882
-4.8139909e-05
0.01142732
-0.0001566968
2.2474632e-05
2.3519842e-05
2.6375109e-05
1.2422895e-05
6.235012e-06
1.9327195e-05
3.0242522e-05
3.7771726e-05
-0.011272067
-2.079906e-05
0.011326493
-0.00020905655
2.9954371e-05
3.8615742e-05
4.1549725e-05
0.00015131424
-0.011124553
2.8214965e-06
1.6166153e-05
0.011178653
-0.00022074231
2.7043346e-05
-0.0113752
4.4181817e-05
0.011432722
-0.0001870761
-3.2868511e-05
2.7099692e-05
3.4346064e-05
3.2266128e-05
1.5628635e-05
-0.0028492516
-1.0844133e-05
9.094939e-06
0.0028567762
-2.1034894e-05
-0.0024696817
-2.8923392e-06
1.4997544e-06
0.0024782839
-7.201717e-06
5.9555874e-06
-0.003489377
6.2676413e-06
-1.1312877e-05
0.0035089048
-2.0419109e-05
3.9570035e-05
2.1142961e-05
-0.011515465
-8.5837049e-05
0.01163162
-0.00027822694
4.0624075e-05
3.9103993e-05
4.2982141e-05
2.0771603e-05
1.6563138e-05
2.8353424e-05
5.5631243e-05
6.7441671e-05
-0.011404576
-3.6949809e-05
0.01151065
-0.00037507244
5.5820763e-05
6.2819046e-05
6.6400214e-05
0.00026206932
-0.011254347
3.5011306e-06
3.0720318e-05
0.011357514
-0.00039671321
4.9365426e-05
-0.011515982
8.0047818e-05
0.011626649
-0.00033527157
-6.1179766e-05
4.861875e-05
5.5432385e-05
5.2672294e-05
2.6590844e-05
-0.0028924698
-1.9729052e-05
1.5809515e-05
0.0029071841
-3.7597172e-05
-0.0025123378
-4.9720148e-06
2.7315834e-06
0.0025264547
-1.2090882e-05
9.0971157e-06
-0.0035824263
9.5325749e-06
-1.7669048e-05
0.0036129195
-3.1974747e-05
6.2016699e-05
3.3820498e-05
-0.01178372
-0.00013710685
0.011975965
-0.0004459012
6.5105259e-05
6.0402492e-05
6.6212125e-05
3.2131134e-05
3.0029062e-05
4.1094851e-05
9.0793144e-05
0.00010742613
-0.011650356
-5.8924847e-05
0.011830833
-0.00061002433
9.1623669e-05
9.7509949e-05
0.00010219395
0.00041795893
-0.011492895
4.4237297e-06
5.0325869e-05
0.011668507
-0.00064760197
8.0113351e-05
-0.011773076
0.00012910001
0.011958468
-0.00054267932
-9.9528709e-05
7.8421549e-05
8.547052e-05
8.1632073e-05
4.1897277e-05
-0.0029653065
-3.2075507e-05
2.5280253e-05
0.00298994
-6.04703e-05
-0.002580612
-7.8513041e-06
4.3919211e-06
0.0026026246
-1.8930683e-05
1.2858865e-05
-0.0037239933
1.4432715e-05
-2.5867455e-05
0.0037689903
-4.677518e-05
9.1283544e-05
4.9973155e-05
-0.012218353
-0.00020433068
0.012514491
-0.00066852539
9.6825071e-05
8.83427e-05
9.6857653e-05
4.6846332e-05
4.7018186e-05
5.8006387e-05
0.00013752281
0.0001602591
-0.012061439
-8.8880231e-05
0.012351262
-0.00093310781
0.00013916811
0.00014400591
0.00015025886
0.00062660294
-0.011894206
6.0658367e-06
7.6474975e-05
0.012179716
-0.00099605724
0.00012085599
-0.012195555
0.00019365586
0.012488116
-0.00082358203
-0.00014974658
0.00011736442
0.00012550744
0.00011955619
6.1881112e-05
-0.0030791879
-4.7947435e-05
3.7653437e-05
0.0031168806
-9.0432294e-05
-0.0026839565
-1.2024927e-05
6.7050922e-06
0.0027158306
-2.7531341e-05
1.6604089e-05
-0.0039255376
1.9563791e-05
-3.4933758e-05
0.0039862304
-6.2965846e-05
0.00012355869
6.7694123e-05
-0.012875049
-0.00027989315
0.013296131
-0.00092261576
0.00013210616
0.00011884907
0.0001306856
6.3084468e-05
6.6020583e-05
7.7135476e-05
0.00019097274
0.00022102414
-0.012710262
-0.00012288915
0.013139164
-0.0013131713
0.00019388005
0.00019557455
0.00020396445
0.00086501666
-0.012535224
8.8683198e-06
0.00010622539
0.012962568
-0.0014099675
0.00016697765
-0.012849517
0.00026666953
0.013275981
-0.0011503993
-0.00020541615
0.00016095538
0.00016990507
0.00016108316
8.4167422e-05
-0.0032456015
-6.5183048e-05
5.1178005e-05
0.0032980067
-0.0001240496
-0.0028295094
-1.6561874e-05
9.2663313e-06
0.0028723725
-3.6834028e-05
1.9064375e-05
-0.0041855067
2.3039017e-05
-4.1411384e-05
0.0042579541
-7.4815548e-05
0.00014713549
8.036761e-05
-0.013774556
-0.00033807183
0.014298726
-0.0011223178
0.00015816218
0.00013989602
0.00015448913
7.4230733e-05
7.9792884e-05
9.0737997e-05
0.00023087472
0.00026712317
-0.013645767
-0.00015000697
0.014232512
-0.0016546961
0.00023538612
0.00023069728
0.00024124074
0.0010476379
-0.0134772
1.0586701e-05
0.00012684247
0.014081761
-0.001803462
0.00020143998
-0.013769605
0.00032023672
0.014326677
-0.0014268846
-0.00024877324
0.00019306252
0.00020085789
0.0001896665
0.00010128846
-0.0034667509
-7.7408996e-05
6.0767199e-05
0.0035297962
-0.00014994369
-0.0030160967
-1.9896527e-05
1.1361582e-05
0.0030670502
-4.3695742e-05
1.7862372e-05
-0.0044772665
2.2704903e-05
-4.1013157e-05
0.004549651
-7.3657525e-05
0.00014347508
7.7578963e-05
-0.01485752
-0.00034431705
0.015417015
-0.0011350086
0.00015522977
0.00013576167
0.00015115881
7.2594005e-05
7.846314e-05
9.1534005e-05
0.00022761921
0.00027870881
-0.014889134
-0.00015694126
0.015548867
-0.0017200372
0.00023379312
0.00022463801
0.00023656167
0.0010609084
-0.014760882
1.3487138e-05
0.00012750437
0.015422485
-0.0018809231
0.00019875156
-0.014940126
0.00032519439
0.01556384
-0.0014762765
-0.0002581009
0.00018966805
0.00019653177
0.00018466002
0.00010180835
-0.0037200137
-7.4614177e-05
5.938324e-05
0.0037811504
-0.00014999269
-0.0032233421
-1.9661691e-05
1.1683713e-05
0.0032739082
-4.3589827e-05
1.1890353e-05
-0.0047442532
1.7638468e-05
-3.1685471e-05
0.0047995703
-5.4336257e-05
0.00010398044
5.4224565e-05
-0.015939171
-0.00027589067
0.016367157
-0.00083818055
0.0001146627
9.8545585e-05
0.00011278499
5.2581918e-05
6.1190512e-05
7.7980503e-05
0.00016665367
0.00023228138
-0.016124683
-0.00013992031
0.016535243
-0.0011984857
0.00017426814
0.00016568256
0.00017763826
0.00080180509
-0.015979933
2.4106555e-05
9.3307201e-05
0.016356341
-0.0013077119
0.00014709788
-0.016132986
0.00025389625
0.016569882
-0.0010688801
-0.00020050059
0.00013856682
0.00014695626
0.00013574977
7.871137e-05
-0.0039543583
-5.1007178e-05
4.2991272e-05
0.0039977129
-0.00011525513
-0.0034112527
-1.4761434e-05
9.6980605e-06
0.003450176
-3.396782e-05
2.9684713e-06
-0.0049244337
1.0092896e-05
-1.7214683e-05
0.0049515596
-2.3606122e-05
4.2903357e-05
2.0188053e-05
-0.016666416
-0.000156676
0.016820773
-0.00031976815
5.1319114e-05
4.1477805e-05
5.3109233e-05
2.2790269e-05
3.394946e-05
5.2324671e-05
7.0455032e-05
0.00013816282
-0.01675804
-9.8089384e-05
0.016789904
-0.00037869217
7.7335897e-05
7.23615e-05
8.1648917e-05
0.00034622111
-0.016536293
3.9982875e-05
2.3857717e-05
0.016521613
-0.00040041683
6.7195616e-05
-0.016840501
0.00012362471
0.016937408
-0.00039922299
-8.3226635e-05
6.0276286e-05
7.0301966e-05
6.1123417e-05
4.0598505e-05
-0.0041142032
-1.6386697e-05
1.7791632e-05
0.004131517
-5.9271043e-05
-0.0035383751
-7.1055399e-06
6.0269095e-06
0.0035582159
-1.8064641e-05
-4.9855551e-06
-0.0049932259
3.5711607e-06
-3.9429999e-06
0.0049944381
4.3590377e-06
-1.041256e-05
-5.3002871e-06
-0.01684248
-3.8587279e-05
0.016753765
0.00012588564
-5.2617441e-06
-8.0627758e-06
-2.9523617e-07
5.8500253e-07
6.4533393e-06
2.461154e-05
-1.7210354e-05
4.7201164e-05
-0.016666223
-5.8781547e-05
0.016428454
0.00029915976
-1.4162056e-05
-1.1461894e-05
-7.1609988e-06
-5.9263263e-05
-0.016354814
5.5171841e-05
-4.2948077e-05
0.016081637
0.00032031848
-6.9032661e-06
-0.016881124
-1.1562124e-05
0.016707075
0.00017843901
3.3216232e-05
-1.0692558e-05
-6.1501926e-07
-6.1494637e-06
4.9603494e-06
-0.0041741148
1.0644044e-05
-3.7285014e-06
0.0041680339
-5.2131335e-06
-0.0035877394
-1.5867365e-07
2.1471979e-06
0.0035895044
-2.9193482e-06
-9.6479253e-06
-0.0049724824
-3.280044e-07
4.2717857e-06
0.0049574282
2.1242686e-05
-4.122696e-05
-1.584065e-05
-0.016579517
3.0194714e-05
0.01634892
0.00039305462
-4.0158258e-05
-3.7545662e-05
-3.4311913e-05
-9.7142973e-06
-1.4275816e-05
2.9892836e-06
-6.7285177e-05
-4.0929086e-06
-0.016119903
-3.4814514e-05
0.015776927
0.0006390247
-6.8938198e-05
-5.9294467e-05
-5.9619406e-05
-0.00029217999
-0.015749424
6.7530364e-05
-9.0864593e-05
0.015394563
0.00067278527
-5.2016849e-05
-0.016451588
-9.9579949e-05
0.016149081
0.00049108599
0.00010784909
-5.1731118e-05
-4.4148205e-05
-4.5490731e-05
-1.7800504e-05
-0.0041492507
2.3747929e-05
-1.5167638e-05
0.0041285832
3.0763563e-05
-0.0035745304
3.8045981e-06
-5.3963139e-07
0.0035650196
7.1318311e-06
-1.1285194e-05
-0.0049020021
-1.5093964e-06
7.2218873e-06
0.0048803911
2.7604585e-05
-5.2363885e-05
-1.6226028e-05
-0.016084408
5.3662439e-05
0.015806336
0.00049331993
-5.5072304e-05
-4.9546057e-05
-5.004957e-05
-1.1663261e-05
-2.4126962e-05
-7.5476034e-06
-8.6639335e-05
-2.1214908e-05
-0.015425996
-2.8265252e-05
0.015085913
0.00072805871
-9.0794931e-05
-7.8220634e-05
-8.0700134e-05
-0.00038656611
-0.015039266
7.7220101e-05
-0.00011730849
0.014700039
0.00076838798
-6.9300781e-05
-0.015825218
-0.00014243369
0.01550177
0.00058140452
0.00014496399
-6.6047326e-05
-6.1585417e-05
-6.0525639e-05
-2.806569e-05
-0.0040719232
2.7195677e-05
-1.8604992e-05
0.0040443945
4.7645552e-05
-0.0035267444
5.130035e-06
-2.1286885e-06
0.0035123459
1.1978776e-05
-1.1154853e-05
-0.004815317
-1.270194e-06
6.9158974e-06
0.0047931203
2.7981655e-05
-5.2633786e-05
-1.3126088e-05
-0.015528043
5.0711786e-05
0.015259956
0.00049038944
-5.7576991e-05
-5.0556766e-05
-5.3079397e-05
-9.8376107e-06
-2.5455523e-05
-9.3952318e-06
-9.0101164e-05
-1.8003103e-05
-0.014766509
-3.2354212e-05
0.014473432
0.00069666728
-9.5012512e-05
-8.2047689e-05
-8.474768e-05
-0.00039288258
-0.014383939
8.5096555e-05
-0.00013004796
0.014096
0.00072734913
-7.1840576e-05
-0.015190209
-0.00015751677
0.014899195
0.00055632278
0.00015908981
-6.7118936e-05
-6.431932e-05
-6.176549e-05
-3.0802451e-05
-0.0039709168
2.7447752e-05
-1.8884634e-05
0.0039416187
5.194083e-05
-0.003466691
5.1742202e-06
-2.8948515e-06
0.0034514713
1.3235995e-05
-1.0236602e-05
-0.004730162
-4.8111308e-07
5.3007118e-06
0.0047094669
2.6295354e-05
-4.9610116e-05
-1.0058721e-05
-0.015007248
3.742753e-05
0.014772948
0.00044789754
-5.5577161e-05
-4.7323217e-05
-5.0702116e-05
-6.7568295e-06
-2.3293021e-05
-7.0494684e-06
-8.6506583e-05
-5.9588591e-06
-0.014208002
-4.039232e-05
0.01397027
0.00062022578
-9.1022064e-05
-7.7881063e-05
-8.0096436e-05
-0.00036007436
-0.013836406
9.165717e-05
-0.00013598809
0.013605304
0.00063629199
-6.8790229e-05
-0.014631708
-0.00016033552
0.014389124
0.00049292477
0.00016214971
-6.37104e-05
-6.0772171e-05
-5.7921085e-05
-2.9876192e-05
-0.0038654055
2.7635001e-05
-1.9017595e-05
0.0038368551
5.0036583e-05
-0.0034068735
4.9821854e-06
-3.2033219e-06
0.0033926168
1.2637494e-05
-9.3270465e-06
-0.0046514687
7.6588946e-07
3.4125361e-06
0.0046323079
2.4544141e-05
-4.6396276e-05
-7.1938421e-06
-0.014557857
2.1692666e-05
0.014361736
0.0003991337
-5.2738443e-05
-4.3778301e-05
-4.7253254e-05
-3.5626108e-06
-1.996154e-05
-3.2516802e-06
-7.9800908e-05
8.8062192e-06
-0.013758728
-5.0304204e-05
0.013571963
0.00053490761
-8.3808792e-05
-7.0407624e-05
-7.2081047e-05
-0.0003185655
-0.01340086
9.6994604e-05
-0.00013742463
0.013221795
0.00053867634
-6.3098986e-05
-0.014170699
-0.00015832772
0.013975747
0.00042106537
0.00016022706
-5.8096698e-05
-5.4360518e-05
-5.1689588e-05
-2.7661567e-05
-0.0037657282
2.794821e-05
-1.9674309e-05
0.0037394896
4.5828364e-05
-0.0033521293
4.9404884e-06
-3.3873011e-06
0.003339227
1.1418977e-05
-9.1850458e-06
-0.0045777582
2.4595075e-06
1.7376641e-06
0.0045596537
2.3342593e-05
-4.3226497e-05
-4.0993808e-06
-0.01418427
5.3828052e-06
0.014026004
0.00035047778
-4.9555504e-05
-4.0892266e-05
-4.365059e-05
-6.6293773e-07
-1.5949394e-05
1.207421e-06
-7.2395853e-05
2.3992947e-05
-0.013408057
-6.0573101e-05
0.013266101
0.00045327951
-7.608199e-05
-6.2219434e-05
-6.3269087e-05
-0.00027745494
-0.013065362
0.00010123474
-0.0001361772
0.012930354
0.00044823721
-5.660986e-05
-0.013802685
-0.00015354123
0.013651287
0.00035094051
0.00015565711
-5.1972469e-05
-4.7147231e-05
-4.5010064e-05
-2.5359028e-05
-0.0036771577
2.8007857e-05
-2.0592632e-05
0.0036542479
4.105189e-05
-0.003302396
5.4146916e-06
-3.7759445e-06
0.0032904219
1.0343224e-05
-1.03093e-05
-0.0045078991
4.2446114e-06
2.9899631e-07
0.0044908013
2.3013003e-05
-4.0540823e-05
-1.1353881e-06
-0.013887693
-1.3189578e-05
0.013772907
0.00029783887
-4.6684352e-05
-3.8514105e-05
-3.9421924e-05
2.075573e-06
-1.178063e-05
6.9592607e-06
-6.5753172e-05
4.0767338e-05
-0.01314507
-7.1694869e-05
0.013046168
0.0003729036
-6.9090872e-05
-5.356395e-05
-5.3799099e-05
-0.00023840416
-0.012814776
0.00010459908
-0.00013227211
0.01271887
0.00036289587
-5.0675222e-05
-0.013521158
-0.00014500708
0.013414685
0.00027923319
0.00014760206
-4.6565945e-05
-3.9270003e-05
-3.7919543e-05
-2.3147265e-05
-0.0036026512
2.8030874e-05
-2.1530645e-05
0.0035835219
3.5969666e-05
-0.0032550779
6.9033164e-06
-4.6126171e-06
0.0032431965
9.6205334e-06
-1.211799e-05
-0.0044425147
6.4230235e-06
-1.4324539e-06
0.0044269417
2.2802157e-05
-3.7388456e-05
2.7086375e-06
-0.01368813
-4.5783686e-05
0.01365076
0.00020672583
-4.4055929e-05
-3.3831584e-05
-3.034329e-05
7.5415484e-06
-6.5648772e-06
1.9134271e-05
-6.0318833e-05
6.9885511e-05
-0.012972071
-9.0610562e-05
0.012932479
0.00026858675
-6.3824442e-05
-4.0998138e-05
-4.229163e-05
-0.00020511126
-0.012642408
0.00010724938
-0.00011943716
0.012589286
0.00027131538
-4.5441709e-05
-0.013336835
-0.00012187601
0.013302246
0.00017051952
0.00012618042
-4.1775651e-05
-2.6444868e-05
-2.5742496e-05
-1.9827192e-05
-0.003545467
2.6939856e-05
-2.1394911e-05
0.0035315724
2.8310315e-05
-0.0032074778
9.0830493e-06
-5.8538256e-06
0.0031955772
8.6888743e-06
-1.7874645e-05
6.3720872e-06
-0.0043856539
-6.6052424e-08
0.0043687488
2.8523142e-05
-2.767809e-05
1.9134863e-05
-0.00011004646
1.1713746e-05
-3.326354e-05
-1.4856817e-05
9.5102688e-06
-0.013683322
0.003521463
0.0034659995
0.0034111212
0.0033316411
3.0110573e-05
1.5385927e-05
5.3619401e-05
-4.1814136e-05
0.00013213234
-0.00012084895
0.00016195022
0.0033063349
0.003250891
0.0031242921
0.0031606822
-0.012905479
-5.6865988e-05
3.9775967e-06
-1.4624344e-05
-0.00019672358
0.00010974577
-9.4657844e-05
0.00019730927
0.0031788606
0.0032010711
0.0030900417
0.0030766887
-0.012561697
-1.7468436e-05
7.0806595e-05
-6.7380218e-05
2.2294633e-05
-0.013300081
0.0033704368
0.0034048594
0.0032554183
0.0032102015
-1.7907442e-05
3.5275904e-05
3.411515e-05
-1.439004e-05
-0.0035343883
1.35585e-05
-1.2545551e-05
0.003557225
-9.3671452e-06
1.4530287e-05
-0.0031602701
-1.2054856e-05
0.0031411657
1.6634923e-05
-2.2104844e-05
-2.1134439e-05
1.5910653e-05
0.0030826586
1.5797095e-05
-3.57254e-05
-2.6987804e-05
0.0028580552
2.1246365e-05
2.8198049e-05
-1.8180618e-05
-8.5718776e-06
0.0027805261
5.4234152e-06
9.448514e-06
-5.6850776e-06
-1.7200091e-06
8.965881e-07
0.002762518
1.8464478e-06
-2.2940523e-06
2.7221232e-08
-2.7329058e-07
0.0027591327
7.228645e-08
-7.7460233e-06
1.7730209e-06
-2.3507931e-06
0.0027640797
3.0106522e-06
-2.3119796e-05
8.6118895e-06
-1.1584645e-05
0.0027905672
1.3014268e-05
-3.4461748e-05
2.6986821e-05
-2.8831843e-05
0.0029011126
3.2960512e-05
-2.5555567e-05
2.1500798e-05
-7.4840514e-07
0.0031930479
2.440159e-05
-0.0028963514
1.2705418e-07
-5.3958117e-08
4.7407058e-06
4.8286959e-06
0.0028873766
-0.00010099072
-0.011363297
-7.8238603e-05
8.084586e-05
0.01135818
0.00010764376
-0.011227423
-0.00010653508
-6.1985497e-05
4.2649072e-05
0.011290021
6.8596016e-05
-0.011121251
-4.4029416e-05
-2.4954988e-05
1.1547857e-05
0.011168468
1.5421938e-05
-0.011093838
-2.1301602e-05
1.3643195e-06
-1.2716433e-05
0.011131447
3.804076e-07
-0.011165176
-7.6557198e-05
2.7590856e-05
-4.3403441e-05
0.011223334
4.0253396e-05
-0.00012251185
-0.011297659
6.4194906e-05
-8.0857325e-05
0.011350297
9.3378761e-05
-0.011527568
-2.6376682e-05
0.01143403
9.7893742e-05
7.8617435e-05
-8.3568169e-06
1.5413117e-06
-4.9296802e-07
-1.1675408e-05
-3.8281499e-05
-8.9732841e-07
6.3707135e-06
-0.0032385125
1.1291983e-06
6.4829306e-07
5.3355068e-07
5.1938867e-07
0.0032364854
4.4260896e-06
4.6945209e-06
-0.0028865636
-6.2152931e-06
0.0028902033
-5.9805359e-06
4.2833952e-05
3.2389546e-05
-0.011328439
-2.6642133e-05
0.011323028
-3.8507018e-05
5.5180171e-05
-0.011327319
2.3225736e-05
-1.9354843e-05
0.011335983
-6.1283711e-05
8.7045491e-05
-0.011201211
1.6634275e-05
-8.9434387e-06
0.011224983
-0.00011229455
0.00010080148
-0.011158051
2.4954119e-06
6.1582356e-06
0.011181424
-0.00012623766
6.9401995e-05
-0.011263828
-1.2027597e-05
1.7387037e-05
0.011284475
-8.8174406e-05
4.8798457e-05
-0.011359227
-1.9476058e-05
2.5352396e-05
0.011357111
-4.4891771e-05
7.4938174e-06
-0.011382797
0.01137821
-3.8710658e-05
-3.0646665e-05
1.0160035e-05
1.2987384e-05
1.1951135e-05
7.6296928e-06
1.1460965e-05
1.9415034e-05
-2.7367508e-06
2.0355169e-06
-0.0032443276
-3.9875836e-06
1.4782274e-06
0.0032489062
-3.6589798e-06
8.9903246e-06
9.474777e-06
-0.0029099068
-1.4012869e-05
0.0029194524
-1.3585564e-05
0.00013404452
0.00010803789
-0.011345384
-0.00011774041
0.011394921
-0.00016927455
0.00021058572
-0.011347942
0.00011684491
-0.00010068784
0.011380179
-0.00025221569
0.00027037725
-0.01123355
7.6135888e-05
-4.1040775e-05
0.011253051
-0.00031862897
0.00028445326
-0.011190929
3.5629616e-06
3.6444675e-05
0.011207809
-0.00033462865
0.00024496361
-0.011294103
-6.9729905e-05
9.7232457e-05
0.011318905
-0.00029027341
0.00017607838
-0.01137303
-0.00011172954
0.00011525208
0.011413834
-0.00021323232
2.4932342e-05
-0.011409082
0.01146464
-0.00012867292
-0.00010541606
2.3227204e-05
2.4862632e-05
2.376584e-05
1.9322044e-05
2.1961123e-05
3.0108899e-05
1.3186096e-05
3.7854214e-06
-0.0032740892
-8.4710571e-06
2.8501825e-06
0.0032843197
-8.0623585e-06
1.5113863e-05
1.5808245e-05
-0.0029569565
-2.3981678e-05
0.0029737037
-2.3279363e-05
0.00023894791
0.0001943002
-0.011468959
-0.00021905629
0.01157303
-0.00031463265
0.00038923383
-0.011429103
0.00022203221
-0.00019618667
0.011505351
-0.00048451439
0.00050273246
-0.011282194
0.00014915116
-8.1157373e-05
0.011331785
-0.00061400248
0.00052903854
-0.011232056
4.7447763e-06
7.4283773e-05
0.01127461
-0.00064428899
0.00045566222
-0.011356226
-0.00014068457
0.00019077641
0.011416922
-0.00056036338
0.00032078719
-0.011474155
-0.00021538843
0.00021521623
0.011564538
-0.00040472824
4.3826832e-05
-0.011550573
0.011662853
-0.00023150303
-0.00019109108
3.9717426e-05
4.1839415e-05
3.9468429e-05
3.4149047e-05
3.6095673e-05
4.5660364e-05
3.02838e-05
5.902855e-06
-0.0033287608
-1.4602883e-05
4.7626e-06
0.0033463072
-1.3770814e-05
2.349385e-05
2.4397648e-05
-0.0030347382
-3.7632425e-05
0.003061232
-3.6749592e-05
0.00038192839
0.00031126896
-0.011710607
-0.00035677247
0.01189185
-0.00051383302
0.00063853789
-0.011609154
0.00036700947
-0.00032980791
0.011756779
-0.00081638225
0.00083883477
-0.011402789
0.00025294694
-0.00013867623
0.011513603
-0.0010573994
0.00088701179
-0.011336649
6.5359414e-06
0.00012841941
0.011436908
-0.0011162678
0.0007552952
-0.011501939
-0.00024145901
0.00032194822
0.011627823
-0.00095620456
0.00051993518
-0.011684642
-0.00035859478
0.00035178196
0.011849594
-0.00067182952
6.8759192e-05
-0.011814799
0.012003656
-0.00037095336
-0.00030739073
6.2470075e-05
6.5848033e-05
6.1121811e-05
5.4695347e-05
5.5584089e-05
6.7810146e-05
5.2928603e-05
8.8003088e-06
-0.0034173102
-2.3313004e-05
7.6533763e-06
0.0034450893
-2.157088e-05
3.4404796e-05
3.5538579e-05
-0.0031542983
-5.5375747e-05
0.0031931638
-5.4206936e-05
0.00057061644
0.00046567676
-0.012123256
-0.00054209445
0.012417884
-0.00078399845
0.00098308966
-0.011956438
0.00056807309
-0.00051962392
0.012228938
-0.0013002697
0.0013244557
-0.011675708
0.00040262546
-0.00022320946
0.01191308
-0.0017397555
0.0014100782
-0.011587157
9.2116555e-06
0.00020707588
0.011814335
-0.0018528505
0.0011805805
-0.011806248
-0.00038731539
0.00050850233
0.012057198
-0.0015516708
0.00078780846
-0.012064519
-0.00055791535
0.00053615105
0.012349048
-0.0010474637
0.00010076477
-0.012246104
0.012540535
-0.00055472704
-0.00046039813
9.1540471e-05
9.7062696e-05
8.8673963e-05
8.0827777e-05
8.0350721e-05
9.6749032e-05
8.1874733e-05
1.2624136e-05
-0.0035521035
-3.4362491e-05
1.1100111e-05
0.0035931267
-3.1695988e-05
4.611401e-05
4.7604611e-05
-0.0033246943
-7.4727659e-05
0.0033771664
-7.3291931e-05
0.00078319067
0.00063885288
-0.012780995
-0.00075960679
0.013217977
-0.0011040936
0.0013960808
-0.012588476
0.00080911114
-0.00075812498
0.013091176
-0.0019560591
0.0019565465
-0.012290762
0.00060211505
-0.00034172351
0.012885774
-0.0028194148
0.002111796
-0.012199523
1.2646169e-05
0.00031829169
0.012800059
-0.0030510576
0.0017132091
-0.012420681
-0.00058353382
0.00074330471
0.012981329
-0.002440784
0.0010991696
-0.01271052
-0.00079824169
0.00075124908
0.013166439
-0.0015141587
0.00013617099
-0.012903356
0.013323938
-0.0007633187
-0.0006338919
0.00012352675
0.00013124035
0.00011839359
0.00010957611
0.00010717712
0.0001287948
0.00011390265
1.6550428e-05
-0.0037438782
-4.6501236e-05
1.5111893e-05
0.0037997012
-4.2834702e-05
5.4665858e-05
5.6349942e-05
-0.0035458676
-8.8892507e-05
0.0036088863
-8.7269192e-05
0.00094472886
0.00076980914
-0.01373459
-0.00094334744
0.014334312
-0.0013860267
0.0017949932
-0.013789495
0.0010501099
-0.0010326542
0.014592619
-0.0026311427
0.0026284398
-0.013605432
0.00083772127
-0.00048325606
0.014240573
-0.0036314097
0.002858031
-0.013482483
3.4864669e-05
0.00041832192
0.014045847
-0.0038878291
0.0022781122
-0.0137251
-0.00079494305
0.0010063708
0.014462486
-0.0032414409
0.0013605995
-0.013760868
-0.0010409198
0.00093503328
0.014496786
-0.0020060429
0.00016257238
-0.01381154
0.014341234
-0.00092372935
-0.00076715124
0.00014626649
0.00015567013
0.00013882729
0.00012999772
0.00012582165
0.00015227556
0.00013776197
1.9292042e-05
-0.0039913292
-5.54288e-05
1.8031732e-05
0.0040584788
-5.1233241e-05
5.3740104e-05
5.5654115e-05
-0.0037957561
-8.8062203e-05
0.0038583925
-8.630379e-05
0.00094578693
0.00077342485
-0.015012863
-0.00098815781
0.015693617
-0.0014291172
0.0018317357
-0.015323788
0.0011001225
-0.001039038
0.015828897
-0.002412388
0.00254282
-0.014679459
0.00082151935
-0.00049355357
0.014888167
-0.0030914866
0.0027227787
-0.014405346
9.5008839e-05
0.00031505382
0.014556382
-0.0032958642
0.0022758823
-0.015027902
-0.00068660283
0.00095090282
0.015348263
-0.0028737125
0.0014034264
-0.01528687
-0.0010628578
0.00097491787
0.015958047
-0.0020037732
0.0001611023
-0.014908387
0.015473411
-0.00093253942
-0.00077507846
0.00014230294
0.00015233859
0.00013382085
0.0001266209
0.00012194217
0.00015074788
0.00013614125
1.8781792e-05
-0.0042687216
-5.4924787e-05
1.7882962e-05
0.0043358221
-5.1230017e-05
3.9991873e-05
4.1916121e-05
-0.0040244661
-6.6173414e-05
0.0040715306
-6.4389636e-05
0.00069950936
0.0005876555
-0.016277732
-0.00072615378
0.016666588
-0.00096200228
0.0011959463
-0.016075384
0.00074181594
-0.00066337235
0.01606562
-0.0012737088
0.001458043
-0.014897666
0.00052435179
-0.00035632063
0.014709072
-0.0014453674
0.0015559381
-0.014529943
0.00016315033
4.7676466e-05
0.01431221
-0.0015572958
0.0014115493
-0.01543704
-0.00027372179
0.00048261806
0.015307959
-0.0015000092
0.0010030081
-0.016405871
-0.00063861295
0.000681131
0.016583844
-0.0012350291
0.00012238455
-0.01600998
0.016447472
-0.0006998771
-0.00058273557
0.00010208856
0.00011385526
9.5726281e-05
9.0368201e-05
8.8032698e-05
0.00011747899
0.0001010139
1.430891e-05
-0.0045223234
-4.1186302e-05
1.3430298e-05
0.0045738012
-3.9723261e-05
1.7956396e-05
1.9820744e-05
-0.0041779506
-3.1159704e-05
0.004200093
-2.922855e-05
0.00027083545
0.00026314677
-0.016838897
-0.00027342147
0.016799478
-0.00022644067
0.00025070831
-0.015847199
0.00022245672
-0.00017079555
0.015473783
6.7879584e-05
0.00012616621
-0.014345532
0.00015607601
-0.00017694421
0.013858006
0.00037946484
0.00012698778
-0.013927072
0.00020764679
-0.00021835069
0.013426334
0.00038154656
0.00026900849
-0.01499537
0.00018008404
-8.6312252e-05
0.014546887
8.2714817e-05
0.00035238404
-0.016522059
-5.3380634e-05
0.0001829328
0.01627248
-0.00023690168
6.153328e-05
-0.016755609
0.016899379
-0.00029094703
-0.00023445562
4.1259137e-05
5.4331077e-05
3.8832213e-05
3.4800338e-05
3.6195975e-05
6.3554952e-05
4.5360339e-05
7.3333795e-06
-0.0046939949
-1.8889085e-05
6.3077634e-06
0.0047193939
-2.0685629e-05
-2.2925064e-06
-1.8106474e-07
-0.004235112
1.7916853e-07
0.004234518
2.8208396e-06
-0.00010725797
-2.9713434e-05
-0.016597668
9.8230121e-05
0.01629059
0.00034582308
-0.00044989276
-0.015015521
-0.00016043678
0.00015682063
0.014530856
0.0009392158
-0.00079090956
-0.013326573
-8.0190195e-05
-5.7610896e-05
0.012814832
0.0014413278
-0.00083346921
-0.01288814
0.00022448143
-0.00037316707
0.012377827
0.0014933807
-0.00055032508
-0.014038052
0.00045838325
-0.0004579576
0.01353158
0.0010575207
-0.00020058
-0.015904702
0.00037434111
-0.00022617757
0.015477224
0.00048059281
5.3778883e-06
-0.016905648
0.016784704
6.9379911e-05
8.5018423e-05
-1.0775647e-05
-3.0656016e-07
-9.1325e-06
-1.3254389e-05
-8.0972661e-06
1.1430004e-05
-7.7495398e-06