/*--------------------------------*- C++ -*----------------------------------*\
  =========                 |
  \\      /  F ield         | OpenFOAM: The Open Source CFD Toolbox
   \\    /   O peration     | Website:  https://openfoam.org
    \\  /    A nd           | Version:  8
     \\/     M anipulation  |
\*---------------------------------------------------------------------------*/
FoamFile
{
    version     2.0;
    format      ascii;
    class       volVectorField;
    location    "50";
    object      U;
}
// * * * * * * * * * * * * * * * * * * * * * * * * * * * * * * * * * * * * * //

dimensions      [0 1 -1 0 0 0 0];

internalField   nonuniform List<vector> 
72028
(
(0.00081054286 1.0011498 0.0025420983)
(-3.6718576e-05 1.0000044 -6.0057774e-05)
(-0.00011517383 1.0041597 -8.9265693e-05)
(-0.00012043242 1.0022462 -0.00053064785)
(-0.00028478914 1.0096559 -0.00032457983)
(-0.0001433873 1.0081049 -0.00090374916)
(-0.00049665683 1.020779 -0.00063254882)
(-0.00016616149 1.0190505 -0.001654119)
(-0.0008439253 1.0401276 -0.0010796478)
(-0.0001844552 1.0376898 -0.0030172384)
(-0.0013561972 1.0706593 -0.001570631)
(-0.00025206017 1.0671139 -0.0047741759)
(-0.0019542767 1.1165424 -0.0022460008)
(-0.0003665919 1.1115409 -0.0069335869)
(-0.0026046249 1.180668 -0.0029889399)
(-0.00050489519 1.1740945 -0.0093101375)
(-0.0033080406 1.2618266 -0.0034914057)
(-0.0006374282 1.2539022 -0.010919614)
(-0.0038324762 1.3496117 -0.0033306373)
(-0.00078688747 1.3411818 -0.010740686)
(-0.0039596372 1.425782 -0.002369814)
(-0.00099125594 1.4175334 -0.0080658227)
(-0.0036319103 1.4738335 -0.00097104143)
(-0.0011784724 1.4659094 -0.0037693863)
(-0.0030801818 1.4890761 0.00035403756)
(-0.0012116524 1.4813518 0.00010157341)
(-0.0026041588 1.4799269 0.0010365568)
(-0.0011437976 1.472316 0.0021634264)
(-0.002077006 1.4582102 0.0012692189)
(-0.0011147858 1.4507029 0.0027460079)
(-0.001623058 1.4323704 0.0013136918)
(-0.0011435618 1.4249324 0.0027792632)
(-0.0013402032 1.4068894 0.0013214295)
(-0.0012328883 1.3994734 0.0027966978)
(-0.0012557725 1.3836183 0.0012464531)
(-0.0014180486 1.3759874 0.002830449)
(-0.0015889795 1.3618686 0.0012259046)
(-0.00174758 1.3542901 0.0026946794)
(-0.002391037 1.3398747 0.0013516341)
(-0.0022990872 1.3333168 0.0025049796)
(-0.0033803284 1.3169568 0.0015641492)
(-0.0030767257 1.3121126 0.0024937352)
(-0.0043915578 1.293522 0.0017515741)
(-0.0040100637 1.2902149 0.0026289352)
(-0.00018657406 1.0001305 0.00061855497)
(-0.0001398696 1.0000681 -0.00030925188)
(-0.00011397929 1.0000708 -0.00050191443)
(3.6299141e-06 1.0000676 -0.00055972996)
(0.00010941748 1.0000673 -0.00047923185)
(0.00010569835 1.0000624 -0.00028799338)
(-0.00025253526 0.99989859 -0.0001675324)
(-0.00049972812 1.0023611 -0.00062271324)
(-0.0013868644 1.0020161 -0.0034255745)
(-0.0009315293 1.001851 -0.0048630465)
(0.00024523232 1.0017695 -0.0050738565)
(0.0010915422 1.0019464 -0.0043222865)
(0.0010934808 1.0021414 -0.0022504637)
(0.000282732 1.0024004 -0.00058893115)
(-0.0011505391 1.00807 -0.0014968226)
(-0.0031542956 1.0071411 -0.0077689243)
(-0.002037788 1.006436 -0.010954568)
(0.00056380381 1.0062531 -0.011395568)
(0.0024534017 1.006811 -0.0096727725)
(0.0024804805 1.0076554 -0.0046904631)
(0.00053941071 1.0085907 -0.00092907205)
(-0.0021052256 1.0188533 -0.0028109937)
(-0.0058048112 1.0170523 -0.014087594)
(-0.0035694545 1.0153362 -0.019807676)
(0.0010144568 1.0149312 -0.020588259)
(0.0045272203 1.0162217 -0.017479033)
(0.0043216094 1.0178757 -0.0082134638)
(0.0010066456 1.0198242 -0.0015887327)
(-0.0035142613 1.0371624 -0.0047195951)
(-0.0097278027 1.0339917 -0.023390039)
(-0.005789655 1.0307905 -0.033065693)
(0.0016825104 1.0300233 -0.034424394)
(0.0076592937 1.0323501 -0.029098011)
(0.0072229432 1.035218 -0.013639703)
(0.0017577848 1.0386561 -0.0026336102)
(-0.0054693298 1.0664009 -0.0073821105)
(-0.015300555 1.0616626 -0.036592888)
(-0.0089924691 1.0566201 -0.052316222)
(0.0026128562 1.0553694 -0.054730242)
(0.012190888 1.0589446 -0.045844036)
(0.01146608 1.0631959 -0.021376837)
(0.0027357025 1.0684221 -0.0040744705)
(-0.0080655479 1.1104847 -0.010796542)
(-0.022704405 1.1050256 -0.054062095)
(-0.013400382 1.0983111 -0.07840931)
(0.0038156458 1.0966542 -0.08252617)
(0.01829439 1.1012519 -0.068228191)
(0.016889376 1.1062333 -0.031486371)
(0.004114128 1.1130509 -0.0056894248)
(-0.01098711 1.1725656 -0.014504205)
(-0.031096062 1.1690865 -0.073581097)
(-0.018516576 1.1626179 -0.1084962)
(0.005083038 1.1611493 -0.11495212)
(0.025240647 1.1653274 -0.093701193)
(0.022553292 1.1682758 -0.042769419)
(0.0055616254 1.1753286 -0.0073521658)
(-0.013095311 1.2514778 -0.017309469)
(-0.037396425 1.2542741 -0.087895246)
(-0.022584724 1.2534873 -0.13004282)
(0.0059941106 1.2544642 -0.13877461)
(0.030403901 1.2531434 -0.11216252)
(0.026085697 1.2491964 -0.051409234)
(0.0066596409 1.2540289 -0.0084763062)
(-0.013102349 1.3381785 -0.017225683)
(-0.037586334 1.3530903 -0.085085258)
(-0.024163307 1.3700209 -0.13125728)
(0.0059796846 1.3761801 -0.14380978)
(0.0314657 1.3613062 -0.11094699)
(0.024220615 1.3394166 -0.051434477)
(0.0065975883 1.3396161 -0.0083465917)
(-0.010383449 1.4150384 -0.013013385)
(-0.029805056 1.4455862 -0.062773836)
(-0.02097853 1.4732402 -0.098984811)
(0.0036612345 1.477396 -0.11033325)
(0.024771562 1.4622016 -0.083888662)
(0.015578471 1.4200675 -0.039391154)
(0.0050432945 1.4149238 -0.006530518)
(-0.0060709883 1.4643781 -0.0060366885)
(-0.016261755 1.499559 -0.027573014)
(-0.013495372 1.5133453 -0.04030996)
(-0.0009494804 1.5101865 -0.045665265)
(0.011463332 1.5108927 -0.037331697)
(0.0040197072 1.4725563 -0.020271245)
(0.0025212816 1.4635068 -0.0035982438)
(-0.0020334852 1.4808411 0.00043291103)
(-0.00387597 1.5039815 0.0043087783)
(-0.006101075 1.4917406 0.012206819)
(-0.0053124146 1.480382 0.010908755)
(-0.0024128293 1.5015464 0.0060070564)
(-0.0043890433 1.4897387 -0.002671586)
(0.00014067139 1.4800495 -0.00075832917)
(0.00059484624 1.472144 0.0045949482)
(0.0036832083 1.4733025 0.024408717)
(-0.0016927269 1.4365655 0.041171532)
(-0.0087886754 1.4201497 0.042980752)
(-0.01124573 1.456348 0.031989868)
(-0.0076867539 1.4782309 0.0087422499)
(-0.0012911491 1.4721216 0.001215202)
(0.0017157766 1.4501843 0.0064994696)
(0.0066424212 1.4264184 0.033379592)
(-0.00013735548 1.3738047 0.051382019)
(-0.010790887 1.355783 0.05602748)
(-0.01550132 1.3989694 0.040985064)
(-0.0078515899 1.4494015 0.014165946)
(-0.0018146591 1.4513072 0.0022011066)
(0.0018664115 1.4243546 0.0068975629)
(0.0065523979 1.3768489 0.034157375)
(-0.0003305773 1.3164979 0.052397693)
(-0.011811805 1.2983537 0.056594018)
(-0.017057618 1.3435357 0.041044025)
(-0.0075476203 1.4130203 0.015836205)
(-0.0018417427 1.4263223 0.0025499251)
(0.0015679758 1.3992967 0.0064685393)
(0.0051559469 1.331531 0.03190918)
(-0.0013342104 1.2685752 0.04882321)
(-0.012469453 1.2509264 0.051643566)
(-0.01738997 1.295653 0.038080422)
(-0.0077803939 1.3754099 0.015542477)
(-0.0017474814 1.401824 0.0025976058)
(0.0011128256 1.3761361 0.0059360219)
(0.0035483779 1.2926111 0.029458569)
(-0.0025840055 1.2300003 0.043611186)
(-0.012842146 1.2132323 0.045252062)
(-0.017154917 1.2561925 0.033793911)
(-0.0083530084 1.340054 0.014499407)
(-0.0017121296 1.3794975 0.0025306337)
(0.00053621413 1.3543155 0.0056945316)
(0.0019696148 1.2598854 0.027127936)
(-0.0038196384 1.1994231 0.03848769)
(-0.013023749 1.1837732 0.03927544)
(-0.01677657 1.2242626 0.029550931)
(-0.0089308528 1.3086202 0.013316555)
(-0.0018379955 1.3591186 0.002333648)
(-3.1748094e-05 1.3334054 0.0059537467)
(0.00064020657 1.2326915 0.025204511)
(-0.0049109586 1.1752302 0.0341658)
(-0.013100669 1.1606876 0.034275074)
(-0.016414761 1.1985443 0.025994157)
(-0.0095029993 1.2816235 0.012216337)
(-0.0022743781 1.3394172 0.0020452648)
(-0.00054439526 1.3130001 0.0065603095)
(-0.00037187215 1.2101453 0.023804497)
(-0.0058139191 1.1558372 0.030851894)
(-0.013125093 1.1423544 0.030419441)
(-0.016149011 1.1776209 0.023294071)
(-0.010129383 1.2585395 0.0113724)
(-0.0029431506 1.3189956 0.0016884397)
(-0.0010855471 1.2924638 0.0072568609)
(-0.0011054456 1.1904149 0.023176623)
(-0.006570811 1.1395026 0.02887264)
(-0.013146768 1.1274949 0.027891892)
(-0.016151397 1.159369 0.02177102)
(-0.010870424 1.2380264 0.010946717)
(-0.0038283533 1.2973576 0.0013050407)
(-0.00017322482 1.0000399 -0.00017522681)
(-0.00036108158 1.0000813 -0.00048369351)
(-0.00037595466 1.0000849 -0.00075798137)
(-0.00022608976 1.0000828 -0.00095256989)
(2.4272077e-05 1.000071 -0.0010062782)
(0.00025563501 1.0000606 -0.00091234643)
(0.00037482432 1.0000578 -0.00069342365)
(0.00032036423 1.0000579 -0.00040621215)
(0.00015645619 1.0000176 -0.00011907054)
(-0.0012470939 1.0018498 -0.0011879211)
(-0.0033955628 1.0018155 -0.0044811645)
(-0.0033091604 1.0012785 -0.0068108886)
(-0.0018072429 1.0008033 -0.0083765126)
(0.0004973363 1.0006736 -0.0086986203)
(0.0025215707 1.0010547 -0.0077354183)
(0.0034279577 1.0016799 -0.0057480109)
(0.0027733982 1.0021309 -0.0032546796)
(0.00064160308 1.0019463 -0.00063859475)
(-0.0027266218 1.0074815 -0.0026223466)
(-0.0074626521 1.0062897 -0.0098925961)
(-0.0074440968 1.0041821 -0.015236362)
(-0.0041127644 1.002404 -0.018996674)
(0.0011790193 1.0019575 -0.019784401)
(0.0057697469 1.0032466 -0.017441654)
(0.0076597663 1.0054372 -0.012761819)
(0.0061589516 1.0072281 -0.0072308951)
(0.0014363486 1.0078229 -0.0013611262)
(-0.0049577231 1.0181463 -0.0047754783)
(-0.013358187 1.0149936 -0.017745875)
(-0.013581326 1.0099003 -0.02773409)
(-0.0075363547 1.0056001 -0.034940455)
(0.0022537917 1.0045316 -0.036482595)
(0.010684123 1.0075368 -0.031969262)
(0.013950335 1.0126516 -0.023083428)
(0.011178178 1.0170539 -0.013059927)
(0.0025241009 1.0187034 -0.0024359733)
(-0.0082745173 1.0362826 -0.0079743369)
(-0.022211557 1.0301515 -0.029504654)
(-0.023027432 1.0204895 -0.047043819)
(-0.012864421 1.0121237 -0.060087266)
(0.003969728 1.0100096 -0.062984812)
(0.018378961 1.0157681 -0.054710426)
(0.023571645 1.0254609 -0.038820965)
(0.018620045 1.0337636 -0.02161325)
(0.0041161231 1.0370473 -0.0039251367)
(-0.01285997 1.0652885 -0.012501024)
(-0.03513769 1.0556959 -0.046678434)
(-0.037342043 1.0400767 -0.07645907)
(-0.021175908 1.0258522 -0.099463776)
(0.0066691127 1.0221279 -0.10477679)
(0.030285742 1.0319387 -0.089918014)
(0.037952142 1.047965 -0.062280847)
(0.029283736 1.0611403 -0.033786994)
(0.0064133008 1.0661861 -0.0059538571)
(-0.018778942 1.1092618 -0.018334992)
(-0.052699512 1.0974637 -0.070024112)
(-0.057924818 1.0759964 -0.11881441)
(-0.03365305 1.0547803 -0.1588207)
(0.010729039 1.0489425 -0.16841511)
(0.047911947 1.0638443 -0.14198541)
(0.05809807 1.086748 -0.095047407)
(0.043279112 1.1042038 -0.049731489)
(0.0092626482 1.1101338 -0.0085678001)
(-0.025273432 1.1711905 -0.024690823)
(-0.073066068 1.1623469 -0.097207685)
(-0.082976583 1.140606 -0.17087057)
(-0.051234385 1.1235403 -0.23881769)
(0.016823392 1.1188932 -0.25773867)
(0.071048091 1.1298137 -0.208819)
(0.082117143 1.1511269 -0.13438913)
(0.05893229 1.1681702 -0.067558622)
(0.012376402 1.1720327 -0.011401711)
(-0.03008641 1.2504038 -0.029397471)
(-0.088567503 1.2542382 -0.11794115)
(-0.11114203 1.2628036 -0.22488358)
(-0.072014794 1.2499871 -0.32687126)
(0.020947484 1.2393465 -0.35323862)
(0.098097819 1.2599333 -0.28531733)
(0.10385259 1.2559484 -0.1681887)
(0.070588813 1.2540577 -0.080765065)
(0.014579925 1.2507773 -0.013407329)
(-0.030034488 1.3378687 -0.029276795)
(-0.090829421 1.3735933 -0.11946752)
(-0.11476311 1.3907692 -0.22662372)
(-0.070911618 1.3262169 -0.30113354)
(0.011793923 1.3020259 -0.31951762)
(0.088161175 1.3586185 -0.27496587)
(0.10998899 1.3943682 -0.17690058)
(0.069200894 1.3536376 -0.078687485)
(0.014275034 1.3371959 -0.013251932)
(-0.023092823 1.4152866 -0.022329398)
(-0.070308474 1.4771205 -0.088985988)
(-0.075021392 1.4332279 -0.13766327)
(-0.046509902 1.3267488 -0.15741834)
(-0.0064475319 1.2960086 -0.1661874)
(0.040030636 1.3733828 -0.15834565)
(0.071875916 1.4727985 -0.12218338)
(0.05178204 1.4477453 -0.05823488)
(0.010546092 1.4137979 -0.010217245)
(-0.011603713 1.4646557 -0.010824971)
(-0.029987247 1.5079616 -0.031518536)
(-0.020017816 1.3949396 -0.016901217)
(-0.016843411 1.2625594 0.0073158194)
(-0.023057336 1.2279452 0.0079664422)
(-0.014815123 1.3183054 -0.014531277)
(0.014362657 1.4622315 -0.037970272)
(0.023559012 1.5024608 -0.026304775)
(0.0046681758 1.4631929 -0.0053836814)
(-0.0011172145 1.4806177 -0.00017219023)
(0.0048765619 1.4726965 0.017605374)
(0.017684013 1.3142945 0.068145858)
(0.0022044275 1.1682683 0.11121251)
(-0.03216773 1.1319448 0.1162643)
(-0.049340123 1.2284513 0.080393198)
(-0.031364319 1.3976657 0.030987246)
(-0.0035982021 1.5036365 0.0032928179)
(-0.00064934542 1.4800535 -0.00089953662)
(0.0055073899 1.4712641 0.0067367464)
(0.025198104 1.4087392 0.047222758)
(0.033020942 1.2321166 0.10483398)
(0.0087258275 1.0878415 0.14717203)
(-0.034647423 1.0529113 0.15151715)
(-0.06202029 1.1464525 0.11695209)
(-0.053287579 1.320074 0.064749899)
(-0.021475279 1.4669201 0.021564239)
(-0.0037803696 1.4717321 0.00205222)
(0.008261718 1.44846 0.0097304874)
(0.032079674 1.3426157 0.058449057)
(0.034249439 1.1664342 0.11015277)
(0.0079189897 1.0335311 0.14421637)
(-0.0335866 1.002143 0.14654067)
(-0.061935316 1.0869113 0.1179002)
(-0.058819876 1.2509567 0.072425946)
(-0.029427453 1.4141488 0.02848135)
(-0.0048815479 1.4500192 0.0034058107)
(0.0083829477 1.4206005 0.010280747)
(0.030883705 1.2845861 0.058478625)
(0.029221597 1.118367 0.10082141)
(0.0043930351 1.0000526 0.12619387)
(-0.031304912 0.97276009 0.12664162)
(-0.056550716 1.0470925 0.1038032)
(-0.056231374 1.1958874 0.067108855)
(-0.031080942 1.3605015 0.028375186)
(-0.004899583 1.4243895 0.0036448949)
(0.0074970277 1.3915766 0.010006788)
(0.026384686 1.2371715 0.053655165)
(0.02261877 1.0843543 0.087204096)
(0.00060124304 0.98025241 0.10555758)
(-0.028886551 0.95665463 0.10456249)
(-0.04997879 1.0212552 0.086346446)
(-0.050867558 1.1542121 0.057558655)
(-0.03021003 1.3128713 0.025680743)
(-0.0045676635 1.3995624 0.0032828338)
(0.0064647841 1.3629147 0.0097735721)
(0.021430903 1.1999245 0.047798885)
(0.01648944 1.060653 0.074082171)
(-0.0025596086 0.96889734 0.087166291)
(-0.026696773 0.94834034 0.085163479)
(-0.043954001 1.0047687 0.070405311)
(-0.045273114 1.1233665 0.047786595)
(-0.028543658 1.2729414 0.022373142)
(-0.0043089726 1.3765384 0.0027045368)
(0.0055945424 1.3357318 0.0097873289)
(0.017024295 1.171074 0.042450925)
(0.011464563 1.044155 0.063007268)
(-0.0049449107 0.96260979 0.072239538)
(-0.024813831 0.94449583 0.069577802)
(-0.038949022 0.99429261 0.057340569)
(-0.040345399 1.1006352 0.039297131)
(-0.026575617 1.2401117 0.01896874)
(-0.0044038775 1.3547639 0.0021941885)
(0.0049127283 1.3109181 0.010025873)
(0.013384574 1.1484713 0.03799366)
(0.0075652329 1.0323382 0.054189279)
(-0.0066636941 0.95918195 0.060631952)
(-0.02322538 0.94306313 0.057552754)
(-0.034950538 0.98743889 0.04716583)
(-0.036298049 1.0835537 0.0324638)
(-0.024856549 1.2132637 0.016041042)
(-0.0048616029 1.3336579 0.0017965744)
(0.0044067921 1.288671 0.010447944)
(0.010605422 1.1300528 0.03461876)
(0.0046529203 1.0230611 0.047488332)
(-0.0078711779 0.95719118 0.05184594)
(-0.021895362 0.94284041 0.04849871)
(-0.031827522 0.98244655 0.039524545)
(-0.033189999 1.0698219 0.027316264)
(-0.023650597 1.1911067 0.013829039)
(-0.005654396 1.3129281 0.0014708203)
(0.0041610484 1.2683934 0.011171414)
(0.0088008286 1.1134801 0.032597856)
(0.0025935184 1.0150812 0.042720458)
(-0.0087044202 0.95610593 0.045418458)
(-0.020844422 0.94340269 0.041870468)
(-0.029506369 0.97852903 0.03402482)
(-0.03110093 1.0575482 0.023811875)
(-0.023297738 1.1716099 0.012614732)
(-0.0066119087 1.2920198 0.0010810738)
(0.00059359752 1.0001248 -0.00018819517)
(-0.00048507381 1.000085 -0.00037249218)
(-0.00066368068 1.0000976 -0.00067878775)
(-0.0006251783 1.0001005 -0.00096758285)
(-0.00036094945 1.0000835 -0.0011743181)
(4.8211888e-05 1.0000585 -0.0012390799)
(0.00043282752 1.0000411 -0.0011312962)
(0.00064201602 1.0000365 -0.00089123775)
(0.00063092708 1.0000436 -0.00059164891)
(0.00039190413 1.0000501 -0.00029684295)
(-0.0011969827 1.0006927 0.0011234854)
(-0.00067270899 1.002395 -0.0004760107)
(-0.0045575724 1.0018882 -0.0033669757)
(-0.0059850726 1.0010867 -0.0059604051)
(-0.0053789018 0.99999743 -0.0083482641)
(-0.0028177011 0.99910719 -0.0099467322)
(0.00083304163 0.99888768 -0.010301023)
(0.004123228 0.99948066 -0.0092926517)
(0.005807435 1.0005799 -0.0072380823)
(0.0054059893 1.0016104 -0.0046612806)
(0.0031218373 1.0021394 -0.0021397316)
(0.00015956572 1.003743 -1.6855673e-05)
(-0.0015824729 1.0081659 -0.0010822869)
(-0.010011152 1.006407 -0.0073927096)
(-0.013461346 1.0031751 -0.013390691)
(-0.012397831 0.9990295 -0.019161718)
(-0.006586248 0.99568813 -0.023151699)
(0.0019915137 0.99488174 -0.024037155)
(0.0096435899 0.99710944 -0.021516676)
(0.013290002 1.0011442 -0.01647302)
(0.012030038 1.0050305 -0.010392494)
(0.0069503331 1.0073632 -0.004776765)
(0.0003745115 1.0094469 -0.0002501141)
(-0.0029458684 1.0190212 -0.0019608032)
(-0.017925316 1.0151497 -0.013210301)
(-0.024650757 1.0072882 -0.024494638)
(-0.023217225 0.99716578 -0.035806415)
(-0.012502203 0.98880271 -0.043986293)
(0.0038905493 0.98674924 -0.045849874)
(0.018328994 0.9923585 -0.040614506)
(0.02471581 1.0022204 -0.030492216)
(0.021867182 1.0116012 -0.018879728)
(0.012574377 1.0174454 -0.0087107928)
(0.00076528487 1.0208498 -0.00050924427)
(-0.0049271825 1.0373308 -0.0032706162)
(-0.029768769 1.0303482 -0.021938185)
(-0.042157239 1.0152891 -0.04187336)
(-0.040870829 0.99524732 -0.063022365)
(-0.022395689 0.97820335 -0.078984756)
(0.0071387563 0.97392786 -0.082698779)
(0.032801396 0.98542808 -0.072379061)
(0.043044234 1.0051972 -0.052923786)
(0.037017699 1.0234443 -0.031904774)
(0.020823394 1.0345595 -0.014490325)
(0.0012072778 1.0400671 -0.0008056256)
(-0.0076450504 1.0665862 -0.0051196563)
(-0.047041152 1.0559644 -0.034686928)
(-0.069207061 1.031291 -0.068733589)
(-0.069550211 0.99636356 -0.10716912)
(-0.039236569 0.96399393 -0.13857842)
(0.012767587 0.95537646 -0.14626194)
(0.05703148 0.97807237 -0.12522301)
(0.072171356 1.0138542 -0.088497151)
(0.05985462 1.0446948 -0.051477327)
(0.032634492 1.0623861 -0.022726562)
(0.0016762942 1.0703695 -0.0013686575)
(-0.011121587 1.1107354 -0.0075291898)
(-0.070502967 1.0976659 -0.052068193)
(-0.10906567 1.0632485 -0.10842537)
(-0.1157956 1.0076346 -0.17903473)
(-0.070412793 0.95795306 -0.2475847)
(0.023753608 0.94443467 -0.26686409)
(0.099072978 0.97897325 -0.21651768)
(0.11724218 1.0361127 -0.1435893)
(0.092113937 1.0822622 -0.079119449)
(0.048224266 1.1057783 -0.033524832)
(0.0023089117 1.1160281 -0.0021673761)
(-0.014962509 1.172832 -0.010278412)
(-0.097822557 1.1624965 -0.072321204)
(-0.16035066 1.1279475 -0.15969839)
(-0.19841097 1.076012 -0.30376891)
(-0.12152052 0.97210777 -0.42353071)
(0.036825273 0.93715707 -0.45118342)
(0.17074456 1.022885 -0.37571258)
(0.18698192 1.1062354 -0.22758673)
(0.13128799 1.1465394 -0.11255903)
(0.065465822 1.1696487 -0.045482717)
(0.0027704847 1.1793073 -0.0031764963)
(-0.017843788 1.2516703 -0.012262519)
(-0.1186518 1.2543663 -0.087775091)
(-0.22017843 1.2604195 -0.21835744)
(-0.24253315 1.1207177 -0.36498601)
(-0.14265213 0.9159864 -0.46793838)
(0.029616132 0.85835976 -0.49821586)
(0.18597034 1.0064738 -0.43175143)
(0.2448012 1.2114901 -0.30320985)
(0.16757138 1.2576007 -0.14389034)
(0.078397868 1.2545173 -0.054421105)
(0.0029072574 1.2590025 -0.0042205497)
(-0.017784324 1.3382527 -0.012202665)
(-0.12023221 1.3737066 -0.089907187)
(-0.20893781 1.3561017 -0.20058853)
(-0.20177901 1.1076614 -0.28457821)
(-0.12880985 0.85230889 -0.36611416)
(0.0039490719 0.7838257 -0.40020137)
(0.13183778 0.96159 -0.34776746)
(0.19719799 1.2422669 -0.25845144)
(0.17407508 1.3968108 -0.15168443)
(0.076356288 1.3513727 -0.053563477)
(0.0024770837 1.3448562 -0.0047984422)
(-0.013625194 1.4150461 -0.009443704)
(-0.09084967 1.4772587 -0.067699567)
(-0.11708784 1.363316 -0.10003174)
(-0.098461473 1.0674859 -0.10627153)
(-0.075939819 0.80794057 -0.12191825)
(-0.036161339 0.74088535 -0.14498586)
(0.02343829 0.91659022 -0.14553943)
(0.079647185 1.2164673 -0.12867024)
(0.10975565 1.4587266 -0.10066856)
(0.056029393 1.4414158 -0.040483022)
(0.0013932633 1.4197363 -0.0046232784)
(-0.0067039298 1.4643865 -0.0050938746)
(-0.035599313 1.5080603 -0.024110167)
(-0.010585689 1.3032557 0.013241384)
(0.016451742 0.98221169 0.082756043)
(-0.0062617499 0.72405687 0.14882403)
(-0.066000956 0.66181585 0.14818368)
(-0.088237066 0.83135461 0.083278524)
(-0.044507499 1.1388654 0.013395302)
(0.017798892 1.4331465 -0.026272726)
(0.024894212 1.4962721 -0.019722581)
(-0.00015156561 1.4675716 -0.0038793974)
(-0.00029141885 1.4809152 -0.0010508291)
(0.011140462 1.4727736 0.014054442)
(0.058640874 1.2121448 0.086120293)
(0.078328857 0.88133459 0.18150639)
(0.028743223 0.62770529 0.26348786)
(-0.073648045 0.56664742 0.2704207)
(-0.13651517 0.73232897 0.19351526)
(-0.11629606 1.0399603 0.09795822)
(-0.050396601 1.3597958 0.028294409)
(-0.0037656518 1.5030862 -0.00071943737)
(-0.0014626213 1.4834511 -0.0028522097)
(0.0038550071 1.4721457 0.0015384193)
(0.038784398 1.4088082 0.036993296)
(0.084224796 1.1299197 0.11311134)
(0.089064439 0.82050894 0.19642634)
(0.031183259 0.59864564 0.25626112)
(-0.065847037 0.54734589 0.25782884)
(-0.13468162 0.68865731 0.20033307)
(-0.13497341 0.96576668 0.12137876)
(-0.081727422 1.2790226 0.052626605)
(-0.022245338 1.474078 0.010782297)
(-0.0020097697 1.475246 -0.0019677786)
(0.005763149 1.4501881 0.0026711514)
(0.048495889 1.3427238 0.04587345)
(0.083557766 1.0712189 0.11265966)
(0.077672707 0.79905289 0.17554673)
(0.023402383 0.61501983 0.21333741)
(-0.056051321 0.57372954 0.21055381)
(-0.11628097 0.68849188 0.17050509)
(-0.12660756 0.92422517 0.11301454)
(-0.088219149 1.2109263 0.056689577)
(-0.030769107 1.4278775 0.015531809)
(-0.002043719 1.454173 -0.0012389843)
(0.006114412 1.4244105 0.0029433081)
(0.04733395 1.2847371 0.046238245)
(0.072054512 1.0330084 0.10081548)
(0.061075896 0.79892645 0.14626832)
(0.014697653 0.64726733 0.16933697)
(-0.047599962 0.61388992 0.16424135)
(-0.096368105 0.70709147 0.13544656)
(-0.10942359 0.90480402 0.094146525)
(-0.082465118 1.158804 0.050923743)
(-0.031985547 1.3782501 0.015650518)
(-0.0019289828 1.4288719 -0.00077649098)
(0.0055449987 1.3993866 0.0029128828)
(0.041573061 1.237368 0.042972623)
(0.05829916 1.0088544 0.086451619)
(0.045772707 0.8078741 0.11913509)
(0.0075685916 0.68140024 0.13308749)
(-0.040879197 0.6539005 0.1269368)
(-0.079371292 0.73085678 0.10512723)
(-0.091840003 0.8976296 0.074764154)
(-0.072646994 1.1203762 0.042121098)
(-0.03029825 1.3325369 0.013754333)
(-0.0018470589 1.4040299 -0.00056432758)
(0.00475987 1.3762349 0.0029194802)
(0.034994712 1.2001642 0.038976543)
(0.045932143 0.99377405 0.073345983)
(0.033499677 0.81972208 0.097001985)
(0.0023091874 0.71237877 0.10527785)
(-0.035630827 0.68921644 0.098725201)
(-0.065946287 0.75408289 0.081399966)
(-0.076806019 0.89669809 0.058339344)
(-0.062830445 1.0926335 0.033618019)
(-0.028218915 1.2932306 0.011494847)
(-0.0017434487 1.3817608 -0.0005890087)
(0.0041648093 1.3544392 0.0030328638)
(0.029108305 1.1713492 0.035292006)
(0.035935989 0.98443194 0.062560933)
(0.02421878 0.83171587 0.079851224)
(-0.0013863641 0.73894119 0.08449617)
(-0.031523662 0.71902979 0.07786951)
(-0.055636121 0.77479216 0.063570512)
(-0.064833463 0.89873208 0.045465718)
(-0.054406228 1.0727107 0.02646533)
(-0.026195092 1.260226 0.0092762553)
(-0.0017071755 1.361787 -0.00080851381)
(0.0039255072 1.3336114 0.003413715)
(0.024257252 1.148772 0.032184286)
(0.028237378 0.97841385 0.054079755)
(0.01737513 0.84263442 0.066819124)
(-0.0039161131 0.76128262 0.069061275)
(-0.028275206 0.74390785 0.062525936)
(-0.047762617 0.79255389 0.050371662)
(-0.055577508 0.90179647 0.035731998)
(-0.047624499 1.0580234 0.020802343)
(-0.024514854 1.2327559 0.0073478638)
(-0.0020473225 1.3421088 -0.0014135264)
(0.0038692244 1.3133112 0.0041525864)
(0.020578049 1.1303679 0.029816508)
(0.022481367 0.97395419 0.047587916)
(0.012378706 0.85234725 0.05695418)
(-0.0056251303 0.7802849 0.057542687)
(-0.025678048 0.76493575 0.051170412)
(-0.041722578 0.807856 0.040614272)
(-0.048490514 0.90498154 0.028491625)
(-0.042460378 1.0462669 0.016536285)
(-0.023349818 1.2098837 0.0058769363)
(-0.0026750374 1.3210727 -0.0022537435)
(0.0037162931 1.2928832 0.0051472884)
(0.018235978 1.1138296 0.028444917)
(0.018336452 0.97040792 0.042819937)
(0.0087171305 0.86109157 0.049545906)
(-0.0068483593 0.79661004 0.048885791)
(-0.023673187 0.78287551 0.042659171)
(-0.03713005 0.82118757 0.033350514)
(-0.043178345 0.90818693 0.023191491)
(-0.03886097 1.0358899 0.01355458)
(-0.022973873 1.1898417 0.0049999008)
(-0.0033456393 1.29864 -0.0031313732)
(-0.00032624182 1.0000693 -0.0001414425)
(-0.00076222325 1.0000914 -0.00038335301)
(-0.00095373708 1.0001048 -0.00063453496)
(-0.00088476462 1.0000924 -0.00089163224)
(-0.00051310705 1.0000575 -0.0011003425)
(7.1871806e-05 1.000017 -0.0011680821)
(0.00062236035 0.99999648 -0.0010645964)
(0.0009195617 0.99999747 -0.00083638652)
(0.00091408667 1.0000122 -0.00057176844)
(0.00066858121 1.0000353 -0.00032349706)
(6.8419028e-05 1.0000426 -0.00012672446)
(-0.0035348946 1.002099 -0.0013516616)
(-0.0068893543 1.0014477 -0.0032746212)
(-0.0083739509 1.0001045 -0.0053605886)
(-0.0073321848 0.99848305 -0.0073162622)
(-0.0037913974 0.99725654 -0.0086560139)
(0.0011529379 0.99696534 -0.0089573385)
(0.0056356673 0.99777869 -0.0081197543)
(0.0080398196 0.99928946 -0.0064165731)
(0.007798574 1.0008708 -0.0043406264)
(0.0053379241 1.0018954 -0.0023475809)
(0.0018151155 1.0022595 -0.00082384265)
(-0.0079059572 1.0073068 -0.0030710963)
(-0.015353313 1.0044497 -0.0073491094)
(-0.01923051 0.99920086 -0.012325064)
(-0.017262992 0.99282189 -0.01719808)
(-0.0090673157 0.98779674 -0.020645906)
(0.0028213376 0.98658766 -0.021426569)
(0.013461135 0.98993093 -0.019229817)
(0.018769238 0.99597657 -0.01491638)
(0.017713606 1.002068 -0.009847179)
(0.01176189 1.0061997 -0.0051796269)
(0.0041404866 1.007843 -0.0017514053)
(-0.01424194 1.0173201 -0.0056537642)
(-0.027896577 1.0102642 -0.013388759)
(-0.035953169 0.99739911 -0.023042324)
(-0.033291747 0.9810858 -0.033125482)
(-0.017895944 0.96760934 -0.040732888)
(0.0057158604 0.96431307 -0.042493908)
(0.026455367 0.97331416 -0.037559414)
(0.035755772 0.98918098 -0.028305913)
(0.032726309 1.0043234 -0.018151786)
(0.021184131 1.0144688 -0.009266046)
(0.0073642877 1.0182325 -0.0030360921)
(-0.023549557 1.0343754 -0.0094576349)
(-0.047267062 1.0209602 -0.022686547)
(-0.063288662 0.99554414 -0.040537204)
(-0.060571378 0.96233724 -0.060250661)
(-0.033109204 0.93406013 -0.075377234)
(0.010784459 0.92681844 -0.079086103)
(0.04878658 0.94615189 -0.069007803)
(0.064346368 0.97874185 -0.050800404)
(0.056619873 1.0092464 -0.031312753)
(0.035439695 1.0289146 -0.015415182)
(0.01237534 1.0358294 -0.0050184021)
(-0.036792762 1.0621832 -0.014826593)
(-0.076764947 1.0406298 -0.036824249)
(-0.10759929 0.99668676 -0.069024878)
(-0.10908323 0.93108692 -0.10854975)
(-0.062643493 0.86855437 -0.14296446)
(0.020966341 0.85316735 -0.1520329)
(0.09067395 0.89518709 -0.12795948)
(0.11267986 0.96528157 -0.088878731)
(0.094285408 1.0207079 -0.052056808)
(0.056445036 1.0534993 -0.024455803)
(0.019399231 1.0639748 -0.0080177397)
(-0.054318535 1.105583 -0.021955086)
(-0.11925287 1.0765126 -0.057183196)
(-0.17961581 1.007913 -0.11501624)
(-0.21236122 0.90373045 -0.21151308)
(-0.13222833 0.77086067 -0.30214462)
(0.043754533 0.73055823 -0.32343529)
(0.18787997 0.83326537 -0.26454076)
(0.20154639 0.95835424 -0.15884328)
(0.15169674 1.0468181 -0.083580952)
(0.085308571 1.0941959 -0.03685017)
(0.028442457 1.1072771 -0.011941182)
(-0.073970572 1.1696061 -0.030138881)
(-0.1714581 1.1410092 -0.081997675)
(-0.3049666 1.0761855 -0.19658205)
(-0.33798318 0.8354472 -0.33089973)
(-0.19355748 0.54631957 -0.42781035)
(0.05508789 0.46975314 -0.45505377)
(0.27201476 0.67430606 -0.39356012)
(0.34374478 0.97646169 -0.27270548)
(0.23344141 1.115612 -0.12928463)
(0.11926787 1.1587722 -0.051206657)
(0.038289565 1.1693096 -0.016299957)
(-0.088427491 1.2546428 -0.036299194)
(-0.22564011 1.2631422 -0.10976836)
(-0.37245675 1.1206428 -0.23105678)
(-0.37142274 0.69744975 -0.34714733)
(-0.22776349 0.27120483 -0.46750666)
(0.044910619 0.15709021 -0.51379357)
(0.28371113 0.45987144 -0.4362587)
(0.37312951 0.92217261 -0.30654966)
(0.31594367 1.2363503 -0.17736445)
(0.14564736 1.2547672 -0.062862564)
(0.04524164 1.2496942 -0.019605642)
(-0.08563885 1.3532963 -0.036432919)
(-0.2295413 1.3910338 -0.10868302)
(-0.30332366 1.1072752 -0.17294375)
(-0.31431807 0.58604101 -0.26133743)
(-0.23506705 0.048111899 -0.40246743)
(0.0030592771 -0.10907858 -0.48267243)
(0.21481831 0.29384609 -0.38661077)
(0.28218447 0.85743653 -0.253087)
(0.27338232 1.2908795 -0.15863538)
(0.15083056 1.3826492 -0.066899471)
(0.043755773 1.3386792 -0.019457145)
(-0.063237244 1.4457426 -0.028473171)
(-0.1444105 1.4333619 -0.060499164)
(-0.13641551 1.0671183 -0.051769235)
(-0.13312764 0.54357526 -0.049948735)
(-0.15930526 0.16402145 -0.14846407)
(-0.083307549 -0.050845262 -0.24645842)
(0.021236671 0.25385802 -0.16486244)
(0.080462281 0.80996525 -0.1125402)
(0.12960364 1.2768106 -0.086477425)
(0.11096881 1.4811358 -0.052160798)
(0.031269846 1.4180184 -0.014916976)
(-0.028118996 1.4997729 -0.014167139)
(-0.02700555 1.3950635 0.0019714802)
(0.046594152 0.981986 0.0731933)
(0.10982774 0.47237078 0.19987888)
(0.035426076 0.15943458 0.2790203)
(-0.12560284 -0.0087483286 0.30311122)
(-0.19576138 0.25014147 0.16271638)
(-0.14026149 0.72580277 0.052332375)
(-0.027467027 1.2051943 -0.0057526708)
(0.038874921 1.5005658 -0.023080824)
(0.013113177 1.4698494 -0.007944272)
(0.0033189271 1.5041964 -0.00047103869)
(0.055889277 1.3144759 0.044320332)
(0.144645 0.88130234 0.13624217)
(0.19373823 0.39114882 0.27076807)
(0.10814121 -0.023870825 0.41213558)
(-0.13128928 -0.13298593 0.42120449)
(-0.27411966 0.15930616 0.27357632)